
group   solvent type 1
5000 atoms in group solvent
group   water   empty
0 atoms in group water
group   ions    type 2 3
200 atoms in group ions
group   wall    type 4 5
0 atoms in group wall
group   flying  type 6 7 8
0 atoms in group flying
group   eq_run  union solvent ions flying
5200 atoms in group eq_run
            
######################################################################
pair_style   lj/cut/coul/long 2.500000 3.500000
kspace_style pppm 0.0001

# LJ (neq? False)
# real lj particles
pair_coeff  * *         1.  1.  2.5   # solvent + ions
pair_coeff  4*5 4*5     0   0   2.5   # wall atoms

        
pair_modify  tail no shift yes mix arithmetic # LB mixing rule
neigh_modify delay 2 every 1 check yes page 500000 one 50000
######################################################################
timestep 0.005000
thermo 2000
fix  eqmd   eq_run nvt temp 1.000000 1.000000 0.500000
run 400 # (neq? False) MD run
PPPM initialization ...
  using 12-bit tables for long-range coulomb (../kspace.cpp:340)
  G vector (1/distance) = 0.80650466
  grid = 36 36 36
  stencil order = 5
  estimated absolute RMS force accuracy = 8.1661187e-05
  estimated relative force accuracy = 8.1661187e-05
  using single precision KISS FFT
  3d grid and FFT values/proc = 4913 2592
Per MPI rank memory allocation (min/avg/max) = 5.425 | 5.447 | 5.490 Mbytes
Step Temp Atoms Density TotEng PotEng KinEng E_coul E_vdwl E_long Enthalpy Press 
   10000     0.993636     5200     0.751198 -15785.451810 -23534.325351  7748.873540   -64.716208 -23164.556143  -305.052999 -9829.055240     0.860468 
   10400     1.007354     5200     0.751198 -15628.423140 -23484.274698  7855.851559   -68.583271 -23097.403133  -318.288295 -8907.810220     0.970868 
Loop time of 1.17206 on 27 procs for 400 steps with 5200 atoms

Performance: 147432.226 tau/day, 341.278 timesteps/s
92.0% CPU use with 27 MPI tasks x no OpenMP threads

MPI task timing breakdown:
Section |  min time  |  avg time  |  max time  |%varavg| %total
---------------------------------------------------------------
Pair    | 0.21812    | 0.3697     | 0.43331    |  10.7 | 31.54
Kspace  | 0.62156    | 0.68939    | 0.83639    |   7.6 | 58.82
Neigh   | 0.031847   | 0.047325   | 0.056571   |   3.1 |  4.04
Comm    | 0.04859    | 0.054233   | 0.071582   |   3.4 |  4.63
Output  | 5.1841e-05 | 5.8363e-05 | 0.00019007 |   0.0 |  0.00
Modify  | 0.0053146  | 0.0075571  | 0.010615   |   1.7 |  0.64
Other   |            | 0.003806   |            |       |  0.32

Nlocal:        192.593 ave         205 max         181 min
Histogram: 2 2 4 2 2 7 4 1 1 2
Nghost:        1843.15 ave        1862 max        1818 min
Histogram: 2 4 1 0 1 4 4 4 4 3
Neighs:        16488.6 ave       18477 max       15186 min
Histogram: 4 2 2 4 7 5 1 1 0 1

Total # of neighbors = 445191
Ave neighs/atom = 85.613654
Neighbor list builds = 55
Dangerous builds = 0
unfix    eqmd

group   solvent type 1
5000 atoms in group solvent
group   water   empty
0 atoms in group water
group   ions    type 2 3
200 atoms in group ions
group   wall    type 4 5
0 atoms in group wall
group   flying  type 6 7 8
0 atoms in group flying
group   eq_run  union solvent ions flying
5200 atoms in group eq_run
            
######################################################################
pair_style   lj/cut/coul/long 2.500000 3.500000
kspace_style pppm 0.0001

# LJ (neq? False)
# real lj particles
pair_coeff  * *         1.  1.  2.5   # solvent + ions
pair_coeff  4*5 4*5     0   0   2.5   # wall atoms

        
pair_modify  tail no shift yes mix arithmetic # LB mixing rule
neigh_modify delay 2 every 1 check yes page 500000 one 50000
######################################################################
# shake is off; should be a dummy run
timestep 0.005000
thermo 2000
fix  eqmd   eq_run nvt temp 1.000000 1.000000 0.500000
run 0 # (neq? False) MD run
PPPM initialization ...
  using 12-bit tables for long-range coulomb (../kspace.cpp:340)
  G vector (1/distance) = 0.80650466
  grid = 36 36 36
  stencil order = 5
  estimated absolute RMS force accuracy = 8.1661187e-05
  estimated relative force accuracy = 8.1661187e-05
  using single precision KISS FFT
  3d grid and FFT values/proc = 4913 2592
Per MPI rank memory allocation (min/avg/max) = 5.425 | 5.447 | 5.490 Mbytes
Step Temp Atoms Density TotEng PotEng KinEng E_coul E_vdwl E_long Enthalpy Press 
   10400     1.007354     5200     0.751198 -15628.423140 -23484.274699  7855.851559   -68.583271 -23097.403133  -318.288295 -8907.810220     0.970868 
Loop time of 3.0523e-06 on 27 procs for 0 steps with 5200 atoms

135.9% CPU use with 27 MPI tasks x no OpenMP threads

MPI task timing breakdown:
Section |  min time  |  avg time  |  max time  |%varavg| %total
---------------------------------------------------------------
Pair    | 0          | 0          | 0          |   0.0 |  0.00
Kspace  | 0          | 0          | 0          |   0.0 |  0.00
Neigh   | 0          | 0          | 0          |   0.0 |  0.00
Comm    | 0          | 0          | 0          |   0.0 |  0.00
Output  | 0          | 0          | 0          |   0.0 |  0.00
Modify  | 0          | 0          | 0          |   0.0 |  0.00
Other   |            | 3.052e-06  |            |       |100.00

Nlocal:        192.593 ave         208 max         182 min
Histogram: 2 3 3 4 5 6 2 0 1 1
Nghost:        1844.70 ave        1863 max        1823 min
Histogram: 3 4 0 0 2 3 6 1 3 5
Neighs:        16489.6 ave       18768 max       15221 min
Histogram: 4 2 4 6 7 1 2 0 0 1

Total # of neighbors = 445218
Ave neighs/atom = 85.618846
Neighbor list builds = 0
Dangerous builds = 0
unfix    eqmd
create_atoms  6 random  1  82722  NULL units box # not_read
Created 1 atoms
  using box units in orthogonal box = (-9.5291224 -9.5291224 -9.5291224) to (9.5291224 9.5291224 9.5291224)
  create_atoms CPU = 0.000 seconds
run 0 post no # temp=1.000000 unit_lj?=True velocity generated
WARNING: No fixes defined, atoms won't move (../verlet.cpp:55)
PPPM initialization ...
  using 12-bit tables for long-range coulomb (../kspace.cpp:340)
  G vector (1/distance) = 0.80650297
  grid = 36 36 36
  stencil order = 5
  estimated absolute RMS force accuracy = 8.1654387e-05
  estimated relative force accuracy = 8.1654387e-05
  using single precision KISS FFT
  3d grid and FFT values/proc = 4913 2592
Per MPI rank memory allocation (min/avg/max) = 5.425 | 5.447 | 5.490 Mbytes
Step Temp Atoms Density TotEng PotEng KinEng E_coul E_vdwl E_long Enthalpy Press 
   10400     1.007514     5201     0.751343 -11519.378232 -19377.987689  7858.609457   -68.583595 -18991.116123  -318.287971 12015.391752     3.399862 
Loop time of 3.04011e-06 on 27 procs for 0 steps with 5201 atoms

# generated_velocity_lj 5201 lj_solvent vel 2.092345 -1.003552 0.361629
group   widom_test  type    6 # insert lj
1 atoms in group widom_test
set type 6 charge 0.000000
Setting atom values ...
  1 settings made for charge
run 0 post no # insert flying molecule
WARNING: No fixes defined, atoms won't move (../verlet.cpp:55)
PPPM initialization ...
  using 12-bit tables for long-range coulomb (../kspace.cpp:340)
  G vector (1/distance) = 0.80650297
  grid = 36 36 36
  stencil order = 5
  estimated absolute RMS force accuracy = 8.1654387e-05
  estimated relative force accuracy = 8.1654387e-05
  using single precision KISS FFT
  3d grid and FFT values/proc = 4913 2592
Per MPI rank memory allocation (min/avg/max) = 5.425 | 5.447 | 5.490 Mbytes
Step Temp Atoms Density TotEng PotEng KinEng E_coul E_vdwl E_long Enthalpy Press 
   10400     1.007514     5201     0.751343 -11519.378232 -19377.987689  7858.609457   -68.583595 -18991.116123  -318.287971 12015.391752     3.399862 
Loop time of 3.1037e-06 on 27 procs for 0 steps with 5201 atoms

group noneq_run_rigid    intersect   all         water               # select_lj no selection
0 atoms in group noneq_run_rigid
group noneq_run          subtract    all         noneq_run_rigid     # select_lj no selection
5201 atoms in group noneq_run
run 0 post no # mom rev random number
WARNING: No fixes defined, atoms won't move (../verlet.cpp:55)
PPPM initialization ...
  using 12-bit tables for long-range coulomb (../kspace.cpp:340)
  G vector (1/distance) = 0.80650297
  grid = 36 36 36
  stencil order = 5
  estimated absolute RMS force accuracy = 8.1654387e-05
  estimated relative force accuracy = 8.1654387e-05
  using single precision KISS FFT
  3d grid and FFT values/proc = 4913 2592
Per MPI rank memory allocation (min/avg/max) = 5.425 | 5.447 | 5.490 Mbytes
Step Temp Atoms Density TotEng PotEng KinEng E_coul E_vdwl E_long Enthalpy Press 
   10400     1.007514     5201     0.751343 -11519.378232 -19377.987689  7858.609457   -68.583595 -18991.116123  -318.287971 12015.391752     3.399862 
Loop time of 2.99115e-06 on 27 procs for 0 steps with 5201 atoms

######################################################################
pair_style   lj/cut/coul/long/neq 2.500000 3.500000 10400 100 1.000000 5 1 0 1.000000 1.000000 11 1.000000
kspace_style pppm 0.0001

# LJ (neq? True)
# real lj particles
pair_coeff  * *         1.  1.  2.5   # solvent + ions
pair_coeff  4*5 4*5     0   0   2.5   # wall atoms

        
pair_modify  tail no shift yes mix arithmetic # LB mixing rule
neigh_modify delay 2 every 1 check yes page 500000 one 50000
######################################################################
timestep 0.010000
fix  eqmd  noneq_run           nve                 # nve for non-rigid
run 100 # (neq? True) MD run
PPPM initialization ...
  using 12-bit tables for long-range coulomb (../kspace.cpp:340)
  G vector (1/distance) = 0.80650297
  grid = 36 36 36
  stencil order = 5
  estimated absolute RMS force accuracy = 8.1654387e-05
  estimated relative force accuracy = 8.1654387e-05
  using single precision KISS FFT
  3d grid and FFT values/proc = 4913 2592
Neighbor list info ...
  update every 1 steps, delay 2 steps, check yes
  max neighbors/atom: 50000, page size: 500000
  master list distance cutoff = 3.8
  ghost atom cutoff = 3.8
  binsize = 1.9, bins = 11 11 11
  1 neighbor lists, perpetual/occasional/extra = 1 0 0
  (1) pair lj/cut/coul/long/neq, perpetual
      attributes: half, newton on
      pair build: half/bin/atomonly/newton
      stencil: half/bin/3d
      bin: standard
Per MPI rank memory allocation (min/avg/max) = 5.425 | 5.447 | 5.489 Mbytes
Step Temp Atoms Density TotEng PotEng KinEng E_coul E_vdwl E_long Enthalpy Press 
   10400     1.007514     5201     0.751343 -15629.795055 -23488.404512  7858.609457   -68.583595 -23101.532946  -318.287971 -8911.582250     0.970521 
   10500     1.004722     5201     0.751343 -15615.021317 -23451.850820  7836.829502   -58.341107 -23083.412869  -310.096844 -9030.725928     0.951175 
Loop time of 0.309418 on 27 procs for 100 steps with 5201 atoms

Performance: 279233.855 tau/day, 323.187 timesteps/s
92.5% CPU use with 27 MPI tasks x no OpenMP threads

MPI task timing breakdown:
Section |  min time  |  avg time  |  max time  |%varavg| %total
---------------------------------------------------------------
Pair    | 0.05559    | 0.094596   | 0.1097     |   5.5 | 30.57
Kspace  | 0.15921    | 0.17596    | 0.21659    |   4.2 | 56.87
Neigh   | 0.014468   | 0.021187   | 0.026015   |   2.1 |  6.85
Comm    | 0.013825   | 0.015426   | 0.020222   |   1.7 |  4.99
Output  | 5.4243e-05 | 6.5527e-05 | 0.00019262 |   0.0 |  0.02
Modify  | 0.00033688 | 0.00053092 | 0.00070336 |   0.0 |  0.17
Other   |            | 0.001654   |            |       |  0.53

Nlocal:        192.630 ave         203 max         181 min
Histogram: 2 1 2 2 6 5 0 3 3 3
Nghost:        1841.93 ave        1871 max        1821 min
Histogram: 3 1 3 6 4 5 2 1 0 2
Neighs:        16500.6 ave       17973 max       14876 min
Histogram: 1 2 2 4 4 4 2 4 1 3

Total # of neighbors = 445515
Ave neighs/atom = 85.659489
Neighbor list builds = 25
Dangerous builds = 0
unfix    eqmd

group   solvent type 1
5000 atoms in group solvent
group   water   empty
0 atoms in group water
group   ions    type 2 3
200 atoms in group ions
group   wall    type 4 5
0 atoms in group wall
group   flying  type 6 7 8
1 atoms in group flying
group   eq_run  union solvent ions flying
5201 atoms in group eq_run
            
######################################################################
pair_style   lj/cut/coul/long 2.500000 3.500000
kspace_style pppm 0.0001

# LJ (neq? False)
# real lj particles
pair_coeff  * *         1.  1.  2.5   # solvent + ions
pair_coeff  4*5 4*5     0   0   2.5   # wall atoms

        
pair_modify  tail no shift yes mix arithmetic # LB mixing rule
neigh_modify delay 2 every 1 check yes page 500000 one 50000
######################################################################
run 0 post no # update forcefield; return to Eq
WARNING: No fixes defined, atoms won't move (../verlet.cpp:55)
PPPM initialization ...
  using 12-bit tables for long-range coulomb (../kspace.cpp:340)
  G vector (1/distance) = 0.80650297
  grid = 36 36 36
  stencil order = 5
  estimated absolute RMS force accuracy = 8.1654387e-05
  estimated relative force accuracy = 8.1654387e-05
  using single precision KISS FFT
  3d grid and FFT values/proc = 4913 2592
Neighbor list info ...
  update every 1 steps, delay 2 steps, check yes
  max neighbors/atom: 50000, page size: 500000
  master list distance cutoff = 3.8
  ghost atom cutoff = 3.8
  binsize = 1.9, bins = 11 11 11
  1 neighbor lists, perpetual/occasional/extra = 1 0 0
  (1) pair lj/cut/coul/long, perpetual
      attributes: half, newton on
      pair build: half/bin/atomonly/newton
      stencil: half/bin/3d
      bin: standard
Per MPI rank memory allocation (min/avg/max) = 5.425 | 5.447 | 5.489 Mbytes
Step Temp Atoms Density TotEng PotEng KinEng E_coul E_vdwl E_long Enthalpy Press 
   10500     1.004722     5201     0.751343 -15615.021317 -23451.850819  7836.829502   -58.341107 -23083.412869  -310.096844 -9030.725928     0.951175 
Loop time of 3.05667e-06 on 27 procs for 0 steps with 5201 atoms

# done post_propagate after NEMD
delete_atoms group widom_test compress no # lj bond yes mol yes # reject_insert
Deleted 1 atoms, new total = 5200
run 0 post no # delete trial-inserted flying molecule
WARNING: No fixes defined, atoms won't move (../verlet.cpp:55)
PPPM initialization ...
  using 12-bit tables for long-range coulomb (../kspace.cpp:340)
  G vector (1/distance) = 0.80650466
  grid = 36 36 36
  stencil order = 5
  estimated absolute RMS force accuracy = 8.1661187e-05
  estimated relative force accuracy = 8.1661187e-05
  using single precision KISS FFT
  3d grid and FFT values/proc = 4913 2592
Per MPI rank memory allocation (min/avg/max) = 5.425 | 5.447 | 5.489 Mbytes
Step Temp Atoms Density TotEng PotEng KinEng E_coul E_vdwl E_long Enthalpy Press 
   10500     1.004663     5200     0.751198 -15608.584928 -23443.448055  7834.863127   -58.340822 -23075.010104  -310.097129 -9023.594536     0.951276 
Loop time of 3.11585e-06 on 27 procs for 0 steps with 5200 atoms

run 0 post no # return_position back to old
WARNING: No fixes defined, atoms won't move (../verlet.cpp:55)
PPPM initialization ...
  using 12-bit tables for long-range coulomb (../kspace.cpp:340)
  G vector (1/distance) = 0.80650466
  grid = 36 36 36
  stencil order = 5
  estimated absolute RMS force accuracy = 8.1661187e-05
  estimated relative force accuracy = 8.1661187e-05
  using single precision KISS FFT
  3d grid and FFT values/proc = 4913 2592
Per MPI rank memory allocation (min/avg/max) = 5.425 | 5.447 | 5.489 Mbytes
Step Temp Atoms Density TotEng PotEng KinEng E_coul E_vdwl E_long Enthalpy Press 
   10500     1.007354     5200     0.751198 -15628.423140 -23484.274699  7855.851559   -68.583271 -23097.403133  -318.288295 -8907.810220     0.970868 
Loop time of 2.7607e-06 on 27 procs for 0 steps with 5200 atoms

group widom_test         delete
group noneq_run          delete
group noneq_run_rigid    delete
reset_timestep 10400

group   solvent delete
group   water   delete
group   ions    delete
group   wall    delete
group   flying  delete
group   eq_run  delete
        

group   solvent type 1
5000 atoms in group solvent
group   water   empty
0 atoms in group water
group   ions    type 2 3
200 atoms in group ions
group   wall    type 4 5
0 atoms in group wall
group   flying  type 6 7 8
0 atoms in group flying
group   eq_run  union solvent ions flying
5200 atoms in group eq_run
            
######################################################################
pair_style   lj/cut/coul/long 2.500000 3.500000
kspace_style pppm 0.0001

# LJ (neq? False)
# real lj particles
pair_coeff  * *         1.  1.  2.5   # solvent + ions
pair_coeff  4*5 4*5     0   0   2.5   # wall atoms

        
pair_modify  tail no shift yes mix arithmetic # LB mixing rule
neigh_modify delay 2 every 1 check yes page 500000 one 50000
######################################################################
# shake is off; should be a dummy run
timestep 0.005000
thermo 2000
fix  eqmd   eq_run nvt temp 1.000000 1.000000 0.500000
run 0 # (neq? False) MD run
PPPM initialization ...
  using 12-bit tables for long-range coulomb (../kspace.cpp:340)
  G vector (1/distance) = 0.80650466
  grid = 36 36 36
  stencil order = 5
  estimated absolute RMS force accuracy = 8.1661187e-05
  estimated relative force accuracy = 8.1661187e-05
  using single precision KISS FFT
  3d grid and FFT values/proc = 4913 2592
Per MPI rank memory allocation (min/avg/max) = 5.425 | 5.447 | 5.489 Mbytes
Step Temp Atoms Density TotEng PotEng KinEng E_coul E_vdwl E_long Enthalpy Press 
   10400     1.007354     5200     0.751198 -15628.423140 -23484.274699  7855.851559   -68.583271 -23097.403133  -318.288295 -8907.810220     0.970868 
Loop time of 4.43189e-06 on 27 procs for 0 steps with 5200 atoms

119.5% CPU use with 27 MPI tasks x no OpenMP threads

MPI task timing breakdown:
Section |  min time  |  avg time  |  max time  |%varavg| %total
---------------------------------------------------------------
Pair    | 0          | 0          | 0          |   0.0 |  0.00
Kspace  | 0          | 0          | 0          |   0.0 |  0.00
Neigh   | 0          | 0          | 0          |   0.0 |  0.00
Comm    | 0          | 0          | 0          |   0.0 |  0.00
Output  | 0          | 0          | 0          |   0.0 |  0.00
Modify  | 0          | 0          | 0          |   0.0 |  0.00
Other   |            | 4.432e-06  |            |       |100.00

Nlocal:        192.593 ave         208 max         182 min
Histogram: 2 3 3 4 5 6 2 0 1 1
Nghost:        1844.70 ave        1863 max        1823 min
Histogram: 3 4 0 0 2 3 6 1 3 5
Neighs:        16489.6 ave       18768 max       15221 min
Histogram: 4 2 4 6 7 1 2 0 0 1

Total # of neighbors = 445218
Ave neighs/atom = 85.618846
Neighbor list builds = 0
Dangerous builds = 0
unfix    eqmd
create_atoms  6 random  1  78868  NULL units box # not_read
Created 1 atoms
  using box units in orthogonal box = (-9.5291224 -9.5291224 -9.5291224) to (9.5291224 9.5291224 9.5291224)
  create_atoms CPU = 0.000 seconds
run 0 post no # temp=1.000000 unit_lj?=True velocity generated
WARNING: No fixes defined, atoms won't move (../verlet.cpp:55)
PPPM initialization ...
  using 12-bit tables for long-range coulomb (../kspace.cpp:340)
  G vector (1/distance) = 0.80650297
  grid = 36 36 36
  stencil order = 5
  estimated absolute RMS force accuracy = 8.1654387e-05
  estimated relative force accuracy = 8.1654387e-05
  using single precision KISS FFT
  3d grid and FFT values/proc = 4913 2592
Per MPI rank memory allocation (min/avg/max) = 5.425 | 5.447 | 5.489 Mbytes
Step Temp Atoms Density TotEng PotEng KinEng E_coul E_vdwl E_long Enthalpy Press 
   10400     1.007389     5201     0.751343 196672.674703 188815.044049  7857.630654   -68.583595 189201.915615  -318.287970 1054478.556513   123.919690 
Loop time of 3.9193e-06 on 27 procs for 0 steps with 5201 atoms

# generated_velocity_lj 5201 lj_solvent vel -0.092356 -0.533317 -1.806996
group   widom_test  type    6 # insert lj
1 atoms in group widom_test
set type 6 charge 0.000000
Setting atom values ...
  1 settings made for charge
run 0 post no # insert flying molecule
WARNING: No fixes defined, atoms won't move (../verlet.cpp:55)
PPPM initialization ...
  using 12-bit tables for long-range coulomb (../kspace.cpp:340)
  G vector (1/distance) = 0.80650297
  grid = 36 36 36
  stencil order = 5
  estimated absolute RMS force accuracy = 8.1654387e-05
  estimated relative force accuracy = 8.1654387e-05
  using single precision KISS FFT
  3d grid and FFT values/proc = 4913 2592
Per MPI rank memory allocation (min/avg/max) = 5.425 | 5.447 | 5.489 Mbytes
Step Temp Atoms Density TotEng PotEng KinEng E_coul E_vdwl E_long Enthalpy Press 
   10400     1.007389     5201     0.751343 196672.674703 188815.044049  7857.630654   -68.583595 189201.915615  -318.287970 1054478.556513   123.919690 
Loop time of 3.73774e-06 on 27 procs for 0 steps with 5201 atoms

group noneq_run_rigid    intersect   all         water               # select_lj no selection
0 atoms in group noneq_run_rigid
group noneq_run          subtract    all         noneq_run_rigid     # select_lj no selection
5201 atoms in group noneq_run
run 0 post no # mom rev random number
WARNING: No fixes defined, atoms won't move (../verlet.cpp:55)
PPPM initialization ...
  using 12-bit tables for long-range coulomb (../kspace.cpp:340)
  G vector (1/distance) = 0.80650297
  grid = 36 36 36
  stencil order = 5
  estimated absolute RMS force accuracy = 8.1654387e-05
  estimated relative force accuracy = 8.1654387e-05
  using single precision KISS FFT
  3d grid and FFT values/proc = 4913 2592
Per MPI rank memory allocation (min/avg/max) = 5.425 | 5.447 | 5.489 Mbytes
Step Temp Atoms Density TotEng PotEng KinEng E_coul E_vdwl E_long Enthalpy Press 
   10400     1.007389     5201     0.751343 196672.674703 188815.044049  7857.630654   -68.583595 189201.915615  -318.287970 1054478.556513   123.919690 
Loop time of 3.5703e-06 on 27 procs for 0 steps with 5201 atoms

######################################################################
pair_style   lj/cut/coul/long/neq 2.500000 3.500000 10400 100 1.000000 5 1 0 1.000000 1.000000 11 1.000000
kspace_style pppm 0.0001

# LJ (neq? True)
# real lj particles
pair_coeff  * *         1.  1.  2.5   # solvent + ions
pair_coeff  4*5 4*5     0   0   2.5   # wall atoms

        
pair_modify  tail no shift yes mix arithmetic # LB mixing rule
neigh_modify delay 2 every 1 check yes page 500000 one 50000
######################################################################
timestep 0.010000
fix  eqmd  noneq_run           nve                 # nve for non-rigid
run 100 # (neq? True) MD run
PPPM initialization ...
  using 12-bit tables for long-range coulomb (../kspace.cpp:340)
  G vector (1/distance) = 0.80650297
  grid = 36 36 36
  stencil order = 5
  estimated absolute RMS force accuracy = 8.1654387e-05
  estimated relative force accuracy = 8.1654387e-05
  using single precision KISS FFT
  3d grid and FFT values/proc = 4913 2592
Neighbor list info ...
  update every 1 steps, delay 2 steps, check yes
  max neighbors/atom: 50000, page size: 500000
  master list distance cutoff = 3.8
  ghost atom cutoff = 3.8
  binsize = 1.9, bins = 11 11 11
  1 neighbor lists, perpetual/occasional/extra = 1 0 0
  (1) pair lj/cut/coul/long/neq, perpetual
      attributes: half, newton on
      pair build: half/bin/atomonly/newton
      stencil: half/bin/3d
      bin: standard
Per MPI rank memory allocation (min/avg/max) = 5.425 | 5.447 | 5.489 Mbytes
Step Temp Atoms Density TotEng PotEng KinEng E_coul E_vdwl E_long Enthalpy Press 
   10400     1.007389     5201     0.751343 -15630.838194 -23488.468848  7857.630654   -68.583595 -23101.597282  -318.287970 -8913.531984     0.970390 
   10500     1.000671     5201     0.751343 -15614.954372 -23420.186082  7805.231710   -57.943931 -23051.878928  -310.363222 -8817.307088     0.981996 
Loop time of 0.308814 on 27 procs for 100 steps with 5201 atoms

Performance: 279780.095 tau/day, 323.820 timesteps/s
93.4% CPU use with 27 MPI tasks x no OpenMP threads

MPI task timing breakdown:
Section |  min time  |  avg time  |  max time  |%varavg| %total
---------------------------------------------------------------
Pair    | 0.055699   | 0.095086   | 0.11025    |   5.5 | 30.79
Kspace  | 0.15835    | 0.17485    | 0.21576    |   4.3 | 56.62
Neigh   | 0.014523   | 0.021148   | 0.02459    |   2.0 |  6.85
Comm    | 0.013874   | 0.015485   | 0.020392   |   1.7 |  5.01
Output  | 5.5521e-05 | 6.6809e-05 | 0.00019473 |   0.0 |  0.02
Modify  | 0.00031317 | 0.00052215 | 0.00066875 |   0.0 |  0.17
Other   |            | 0.00166    |            |       |  0.54

Nlocal:        192.630 ave         203 max         181 min
Histogram: 2 1 2 5 2 6 1 1 1 6
Nghost:        1841.93 ave        1868 max        1822 min
Histogram: 2 4 2 7 3 3 2 1 1 2
Neighs:        16500.6 ave       18083 max       14875 min
Histogram: 2 1 3 5 1 6 1 3 1 4

Total # of neighbors = 445517
Ave neighs/atom = 85.659873
Neighbor list builds = 25
Dangerous builds = 0
unfix    eqmd

group   solvent type 1
5000 atoms in group solvent
group   water   empty
0 atoms in group water
group   ions    type 2 3
200 atoms in group ions
group   wall    type 4 5
0 atoms in group wall
group   flying  type 6 7 8
1 atoms in group flying
group   eq_run  union solvent ions flying
5201 atoms in group eq_run
            
######################################################################
pair_style   lj/cut/coul/long 2.500000 3.500000
kspace_style pppm 0.0001

# LJ (neq? False)
# real lj particles
pair_coeff  * *         1.  1.  2.5   # solvent + ions
pair_coeff  4*5 4*5     0   0   2.5   # wall atoms

        
pair_modify  tail no shift yes mix arithmetic # LB mixing rule
neigh_modify delay 2 every 1 check yes page 500000 one 50000
######################################################################
run 0 post no # update forcefield; return to Eq
WARNING: No fixes defined, atoms won't move (../verlet.cpp:55)
PPPM initialization ...
  using 12-bit tables for long-range coulomb (../kspace.cpp:340)
  G vector (1/distance) = 0.80650297
  grid = 36 36 36
  stencil order = 5
  estimated absolute RMS force accuracy = 8.1654387e-05
  estimated relative force accuracy = 8.1654387e-05
  using single precision KISS FFT
  3d grid and FFT values/proc = 4913 2592
Neighbor list info ...
  update every 1 steps, delay 2 steps, check yes
  max neighbors/atom: 50000, page size: 500000
  master list distance cutoff = 3.8
  ghost atom cutoff = 3.8
  binsize = 1.9, bins = 11 11 11
  1 neighbor lists, perpetual/occasional/extra = 1 0 0
  (1) pair lj/cut/coul/long, perpetual
      attributes: half, newton on
      pair build: half/bin/atomonly/newton
      stencil: half/bin/3d
      bin: standard
Per MPI rank memory allocation (min/avg/max) = 5.425 | 5.447 | 5.489 Mbytes
Step Temp Atoms Density TotEng PotEng KinEng E_coul E_vdwl E_long Enthalpy Press 
   10500     1.000671     5201     0.751343 -15614.954372 -23420.186082  7805.231710   -57.943931 -23051.878928  -310.363222 -8817.307087     0.981996 
Loop time of 2.84737e-06 on 27 procs for 0 steps with 5201 atoms

# done post_propagate after NEMD
delete_atoms group widom_test compress no # lj bond yes mol yes # reject_insert
Deleted 1 atoms, new total = 5200
run 0 post no # delete trial-inserted flying molecule
WARNING: No fixes defined, atoms won't move (../verlet.cpp:55)
PPPM initialization ...
  using 12-bit tables for long-range coulomb (../kspace.cpp:340)
  G vector (1/distance) = 0.80650466
  grid = 36 36 36
  stencil order = 5
  estimated absolute RMS force accuracy = 8.1661187e-05
  estimated relative force accuracy = 8.1661187e-05
  using single precision KISS FFT
  3d grid and FFT values/proc = 4913 2592
Per MPI rank memory allocation (min/avg/max) = 5.425 | 5.447 | 5.489 Mbytes
Step Temp Atoms Density TotEng PotEng KinEng E_coul E_vdwl E_long Enthalpy Press 
   10500     1.000841     5200     0.751198 -15605.639632 -23410.695461  7805.055829   -57.943647 -23042.388308  -310.363507 -8804.283626     0.982532 
Loop time of 3.008e-06 on 27 procs for 0 steps with 5200 atoms

run 0 post no # return_position back to old
WARNING: No fixes defined, atoms won't move (../verlet.cpp:55)
PPPM initialization ...
  using 12-bit tables for long-range coulomb (../kspace.cpp:340)
  G vector (1/distance) = 0.80650466
  grid = 36 36 36
  stencil order = 5
  estimated absolute RMS force accuracy = 8.1661187e-05
  estimated relative force accuracy = 8.1661187e-05
  using single precision KISS FFT
  3d grid and FFT values/proc = 4913 2592
Per MPI rank memory allocation (min/avg/max) = 5.425 | 5.447 | 5.489 Mbytes
Step Temp Atoms Density TotEng PotEng KinEng E_coul E_vdwl E_long Enthalpy Press 
   10500     1.007354     5200     0.751198 -15628.423140 -23484.274699  7855.851559   -68.583271 -23097.403133  -318.288295 -8907.810220     0.970868 
Loop time of 2.86107e-06 on 27 procs for 0 steps with 5200 atoms

group widom_test         delete
group noneq_run          delete
group noneq_run_rigid    delete
reset_timestep 10400

group   solvent delete
group   water   delete
group   ions    delete
group   wall    delete
group   flying  delete
group   eq_run  delete
        

group   solvent type 1
5000 atoms in group solvent
group   water   empty
0 atoms in group water
group   ions    type 2 3
200 atoms in group ions
group   wall    type 4 5
0 atoms in group wall
group   flying  type 6 7 8
0 atoms in group flying
group   eq_run  union solvent ions flying
5200 atoms in group eq_run
            
######################################################################
pair_style   lj/cut/coul/long 2.500000 3.500000
kspace_style pppm 0.0001

# LJ (neq? False)
# real lj particles
pair_coeff  * *         1.  1.  2.5   # solvent + ions
pair_coeff  4*5 4*5     0   0   2.5   # wall atoms

        
pair_modify  tail no shift yes mix arithmetic # LB mixing rule
neigh_modify delay 2 every 1 check yes page 500000 one 50000
######################################################################
# shake is off; should be a dummy run
timestep 0.005000
thermo 2000
fix  eqmd   eq_run nvt temp 1.000000 1.000000 0.500000
run 0 # (neq? False) MD run
PPPM initialization ...
  using 12-bit tables for long-range coulomb (../kspace.cpp:340)
  G vector (1/distance) = 0.80650466
  grid = 36 36 36
  stencil order = 5
  estimated absolute RMS force accuracy = 8.1661187e-05
  estimated relative force accuracy = 8.1661187e-05
  using single precision KISS FFT
  3d grid and FFT values/proc = 4913 2592
Per MPI rank memory allocation (min/avg/max) = 5.425 | 5.447 | 5.489 Mbytes
Step Temp Atoms Density TotEng PotEng KinEng E_coul E_vdwl E_long Enthalpy Press 
   10400     1.007354     5200     0.751198 -15628.423140 -23484.274699  7855.851559   -68.583271 -23097.403133  -318.288295 -8907.810220     0.970868 
Loop time of 3.01259e-06 on 27 procs for 0 steps with 5200 atoms

94.7% CPU use with 27 MPI tasks x no OpenMP threads

MPI task timing breakdown:
Section |  min time  |  avg time  |  max time  |%varavg| %total
---------------------------------------------------------------
Pair    | 0          | 0          | 0          |   0.0 |  0.00
Kspace  | 0          | 0          | 0          |   0.0 |  0.00
Neigh   | 0          | 0          | 0          |   0.0 |  0.00
Comm    | 0          | 0          | 0          |   0.0 |  0.00
Output  | 0          | 0          | 0          |   0.0 |  0.00
Modify  | 0          | 0          | 0          |   0.0 |  0.00
Other   |            | 3.013e-06  |            |       |100.00

Nlocal:        192.593 ave         208 max         182 min
Histogram: 2 3 3 4 5 6 2 0 1 1
Nghost:        1844.70 ave        1863 max        1823 min
Histogram: 3 4 0 0 2 3 6 1 3 5
Neighs:        16489.6 ave       18768 max       15221 min
Histogram: 4 2 4 6 7 1 2 0 0 1

Total # of neighbors = 445218
Ave neighs/atom = 85.618846
Neighbor list builds = 0
Dangerous builds = 0
unfix    eqmd
create_atoms  6 random  1  85211  NULL units box # not_read
Created 1 atoms
  using box units in orthogonal box = (-9.5291224 -9.5291224 -9.5291224) to (9.5291224 9.5291224 9.5291224)
  create_atoms CPU = 0.000 seconds
run 0 post no # temp=1.000000 unit_lj?=True velocity generated
WARNING: No fixes defined, atoms won't move (../verlet.cpp:55)
PPPM initialization ...
  using 12-bit tables for long-range coulomb (../kspace.cpp:340)
  G vector (1/distance) = 0.80650297
  grid = 36 36 36
  stencil order = 5
  estimated absolute RMS force accuracy = 8.1654387e-05
  estimated relative force accuracy = 8.1654387e-05
  using single precision KISS FFT
  3d grid and FFT values/proc = 4913 2592
Per MPI rank memory allocation (min/avg/max) = 5.425 | 5.447 | 5.489 Mbytes
Step Temp Atoms Density TotEng PotEng KinEng E_coul E_vdwl E_long Enthalpy Press 
   10400     1.007430     5201     0.751343 -15382.323113 -23240.277426  7857.954313   -68.583595 -22853.405860  -318.287970 -7557.428819     1.130394 
Loop time of 2.91819e-06 on 27 procs for 0 steps with 5201 atoms

# generated_velocity_lj 5201 lj_solvent vel 1.631761 -0.594170 1.090793
group   widom_test  type    6 # insert lj
1 atoms in group widom_test
set type 6 charge 0.000000
Setting atom values ...
  1 settings made for charge
run 0 post no # insert flying molecule
WARNING: No fixes defined, atoms won't move (../verlet.cpp:55)
PPPM initialization ...
  using 12-bit tables for long-range coulomb (../kspace.cpp:340)
  G vector (1/distance) = 0.80650297
  grid = 36 36 36
  stencil order = 5
  estimated absolute RMS force accuracy = 8.1654387e-05
  estimated relative force accuracy = 8.1654387e-05
  using single precision KISS FFT
  3d grid and FFT values/proc = 4913 2592
Per MPI rank memory allocation (min/avg/max) = 5.425 | 5.447 | 5.489 Mbytes
Step Temp Atoms Density TotEng PotEng KinEng E_coul E_vdwl E_long Enthalpy Press 
   10400     1.007430     5201     0.751343 -15382.323113 -23240.277426  7857.954313   -68.583595 -22853.405860  -318.287970 -7557.428819     1.130394 
Loop time of 3.24148e-06 on 27 procs for 0 steps with 5201 atoms

group noneq_run_rigid    intersect   all         water               # select_lj no selection
0 atoms in group noneq_run_rigid
group noneq_run          subtract    all         noneq_run_rigid     # select_lj no selection
5201 atoms in group noneq_run
run 0 post no # mom rev random number
WARNING: No fixes defined, atoms won't move (../verlet.cpp:55)
PPPM initialization ...
  using 12-bit tables for long-range coulomb (../kspace.cpp:340)
  G vector (1/distance) = 0.80650297
  grid = 36 36 36
  stencil order = 5
  estimated absolute RMS force accuracy = 8.1654387e-05
  estimated relative force accuracy = 8.1654387e-05
  using single precision KISS FFT
  3d grid and FFT values/proc = 4913 2592
Per MPI rank memory allocation (min/avg/max) = 5.425 | 5.447 | 5.489 Mbytes
Step Temp Atoms Density TotEng PotEng KinEng E_coul E_vdwl E_long Enthalpy Press 
   10400     1.007430     5201     0.751343 -15382.323113 -23240.277426  7857.954313   -68.583595 -22853.405860  -318.287970 -7557.428819     1.130394 
Loop time of 2.83726e-06 on 27 procs for 0 steps with 5201 atoms

######################################################################
pair_style   lj/cut/coul/long/neq 2.500000 3.500000 10400 100 1.000000 5 1 0 1.000000 1.000000 11 1.000000
kspace_style pppm 0.0001

# LJ (neq? True)
# real lj particles
pair_coeff  * *         1.  1.  2.5   # solvent + ions
pair_coeff  4*5 4*5     0   0   2.5   # wall atoms

        
pair_modify  tail no shift yes mix arithmetic # LB mixing rule
neigh_modify delay 2 every 1 check yes page 500000 one 50000
######################################################################
timestep 0.010000
fix  eqmd  noneq_run           nve                 # nve for non-rigid
run 100 # (neq? True) MD run
PPPM initialization ...
  using 12-bit tables for long-range coulomb (../kspace.cpp:340)
  G vector (1/distance) = 0.80650297
  grid = 36 36 36
  stencil order = 5
  estimated absolute RMS force accuracy = 8.1654387e-05
  estimated relative force accuracy = 8.1654387e-05
  using single precision KISS FFT
  3d grid and FFT values/proc = 4913 2592
Neighbor list info ...
  update every 1 steps, delay 2 steps, check yes
  max neighbors/atom: 50000, page size: 500000
  master list distance cutoff = 3.8
  ghost atom cutoff = 3.8
  binsize = 1.9, bins = 11 11 11
  1 neighbor lists, perpetual/occasional/extra = 1 0 0
  (1) pair lj/cut/coul/long/neq, perpetual
      attributes: half, newton on
      pair build: half/bin/atomonly/newton
      stencil: half/bin/3d
      bin: standard
Per MPI rank memory allocation (min/avg/max) = 5.425 | 5.447 | 5.489 Mbytes
Step Temp Atoms Density TotEng PotEng KinEng E_coul E_vdwl E_long Enthalpy Press 
   10400     1.007430     5201     0.751343 -15630.471555 -23488.425868  7857.954313   -68.583595 -23101.554302  -318.287970 -8913.228712     0.970381 
   10500     1.000393     5201     0.751343 -15614.598087 -23417.664082  7803.065996   -58.609144 -23048.369731  -310.685208 -8834.491982     0.979462 
Loop time of 0.307318 on 27 procs for 100 steps with 5201 atoms

Performance: 281141.872 tau/day, 325.396 timesteps/s
91.9% CPU use with 27 MPI tasks x no OpenMP threads

MPI task timing breakdown:
Section |  min time  |  avg time  |  max time  |%varavg| %total
---------------------------------------------------------------
Pair    | 0.056719   | 0.094154   | 0.10942    |   5.4 | 30.64
Kspace  | 0.15861    | 0.17449    | 0.21334    |   4.1 | 56.78
Neigh   | 0.014602   | 0.020995   | 0.023854   |   2.0 |  6.83
Comm    | 0.013657   | 0.01542    | 0.020124   |   1.7 |  5.02
Output  | 5.6467e-05 | 7.0147e-05 | 0.00020143 |   0.0 |  0.02
Modify  | 0.00034462 | 0.00052512 | 0.00065874 |   0.0 |  0.17
Other   |            | 0.001664   |            |       |  0.54

Nlocal:        192.630 ave         206 max         183 min
Histogram: 4 1 4 7 2 2 1 3 2 1
Nghost:        1842.81 ave        1873 max        1822 min
Histogram: 2 2 5 5 5 4 2 0 1 1
Neighs:        16497.1 ave       18541 max       15034 min
Histogram: 3 2 5 3 4 3 5 0 1 1

Total # of neighbors = 445421
Ave neighs/atom = 85.641415
Neighbor list builds = 25
Dangerous builds = 0
unfix    eqmd

group   solvent type 1
5000 atoms in group solvent
group   water   empty
0 atoms in group water
group   ions    type 2 3
200 atoms in group ions
group   wall    type 4 5
0 atoms in group wall
group   flying  type 6 7 8
1 atoms in group flying
group   eq_run  union solvent ions flying
5201 atoms in group eq_run
            
######################################################################
pair_style   lj/cut/coul/long 2.500000 3.500000
kspace_style pppm 0.0001

# LJ (neq? False)
# real lj particles
pair_coeff  * *         1.  1.  2.5   # solvent + ions
pair_coeff  4*5 4*5     0   0   2.5   # wall atoms

        
pair_modify  tail no shift yes mix arithmetic # LB mixing rule
neigh_modify delay 2 every 1 check yes page 500000 one 50000
######################################################################
run 0 post no # update forcefield; return to Eq
WARNING: No fixes defined, atoms won't move (../verlet.cpp:55)
PPPM initialization ...
  using 12-bit tables for long-range coulomb (../kspace.cpp:340)
  G vector (1/distance) = 0.80650297
  grid = 36 36 36
  stencil order = 5
  estimated absolute RMS force accuracy = 8.1654387e-05
  estimated relative force accuracy = 8.1654387e-05
  using single precision KISS FFT
  3d grid and FFT values/proc = 4913 2592
Neighbor list info ...
  update every 1 steps, delay 2 steps, check yes
  max neighbors/atom: 50000, page size: 500000
  master list distance cutoff = 3.8
  ghost atom cutoff = 3.8
  binsize = 1.9, bins = 11 11 11
  1 neighbor lists, perpetual/occasional/extra = 1 0 0
  (1) pair lj/cut/coul/long, perpetual
      attributes: half, newton on
      pair build: half/bin/atomonly/newton
      stencil: half/bin/3d
      bin: standard
Per MPI rank memory allocation (min/avg/max) = 5.425 | 5.447 | 5.489 Mbytes
Step Temp Atoms Density TotEng PotEng KinEng E_coul E_vdwl E_long Enthalpy Press 
   10500     1.000393     5201     0.751343 -15614.598087 -23417.664082  7803.065996   -58.609144 -23048.369731  -310.685208 -8834.491982     0.979462 
Loop time of 3.14285e-06 on 27 procs for 0 steps with 5201 atoms

# done post_propagate after NEMD
delete_atoms group widom_test compress no # lj bond yes mol yes # reject_insert
Deleted 1 atoms, new total = 5200
run 0 post no # delete trial-inserted flying molecule
WARNING: No fixes defined, atoms won't move (../verlet.cpp:55)
PPPM initialization ...
  using 12-bit tables for long-range coulomb (../kspace.cpp:340)
  G vector (1/distance) = 0.80650466
  grid = 36 36 36
  stencil order = 5
  estimated absolute RMS force accuracy = 8.1661187e-05
  estimated relative force accuracy = 8.1661187e-05
  using single precision KISS FFT
  3d grid and FFT values/proc = 4913 2592
Per MPI rank memory allocation (min/avg/max) = 5.425 | 5.447 | 5.489 Mbytes
Step Temp Atoms Density TotEng PotEng KinEng E_coul E_vdwl E_long Enthalpy Press 
   10500     1.000363     5200     0.751198 -15611.851169 -23413.183959  7801.332790   -58.608857 -23043.889607  -310.685495 -8858.490696     0.975599 
Loop time of 2.95974e-06 on 27 procs for 0 steps with 5200 atoms

run 0 post no # return_position back to old
WARNING: No fixes defined, atoms won't move (../verlet.cpp:55)
PPPM initialization ...
  using 12-bit tables for long-range coulomb (../kspace.cpp:340)
  G vector (1/distance) = 0.80650466
  grid = 36 36 36
  stencil order = 5
  estimated absolute RMS force accuracy = 8.1661187e-05
  estimated relative force accuracy = 8.1661187e-05
  using single precision KISS FFT
  3d grid and FFT values/proc = 4913 2592
Per MPI rank memory allocation (min/avg/max) = 5.425 | 5.447 | 5.489 Mbytes
Step Temp Atoms Density TotEng PotEng KinEng E_coul E_vdwl E_long Enthalpy Press 
   10500     1.007354     5200     0.751198 -15628.423140 -23484.274699  7855.851559   -68.583271 -23097.403133  -318.288295 -8907.810220     0.970868 
Loop time of 3.12581e-06 on 27 procs for 0 steps with 5200 atoms

group widom_test         delete
group noneq_run          delete
group noneq_run_rigid    delete
reset_timestep 10400

group   solvent delete
group   water   delete
group   ions    delete
group   wall    delete
group   flying  delete
group   eq_run  delete
        

group   solvent type 1
5000 atoms in group solvent
group   water   empty
0 atoms in group water
group   ions    type 2 3
200 atoms in group ions
group   wall    type 4 5
0 atoms in group wall
group   flying  type 6 7 8
0 atoms in group flying
group   eq_run  union solvent ions flying
5200 atoms in group eq_run
            
######################################################################
pair_style   lj/cut/coul/long 2.500000 3.500000
kspace_style pppm 0.0001

# LJ (neq? False)
# real lj particles
pair_coeff  * *         1.  1.  2.5   # solvent + ions
pair_coeff  4*5 4*5     0   0   2.5   # wall atoms

        
pair_modify  tail no shift yes mix arithmetic # LB mixing rule
neigh_modify delay 2 every 1 check yes page 500000 one 50000
######################################################################
# shake is off; should be a dummy run
timestep 0.005000
thermo 2000
fix  eqmd   eq_run nvt temp 1.000000 1.000000 0.500000
run 0 # (neq? False) MD run
PPPM initialization ...
  using 12-bit tables for long-range coulomb (../kspace.cpp:340)
  G vector (1/distance) = 0.80650466
  grid = 36 36 36
  stencil order = 5
  estimated absolute RMS force accuracy = 8.1661187e-05
  estimated relative force accuracy = 8.1661187e-05
  using single precision KISS FFT
  3d grid and FFT values/proc = 4913 2592
Per MPI rank memory allocation (min/avg/max) = 5.425 | 5.447 | 5.489 Mbytes
Step Temp Atoms Density TotEng PotEng KinEng E_coul E_vdwl E_long Enthalpy Press 
   10400     1.007354     5200     0.751198 -15628.423140 -23484.274699  7855.851559   -68.583271 -23097.403133  -318.288295 -8907.810220     0.970868 
Loop time of 3.80837e-06 on 27 procs for 0 steps with 5200 atoms

116.7% CPU use with 27 MPI tasks x no OpenMP threads

MPI task timing breakdown:
Section |  min time  |  avg time  |  max time  |%varavg| %total
---------------------------------------------------------------
Pair    | 0          | 0          | 0          |   0.0 |  0.00
Kspace  | 0          | 0          | 0          |   0.0 |  0.00
Neigh   | 0          | 0          | 0          |   0.0 |  0.00
Comm    | 0          | 0          | 0          |   0.0 |  0.00
Output  | 0          | 0          | 0          |   0.0 |  0.00
Modify  | 0          | 0          | 0          |   0.0 |  0.00
Other   |            | 3.808e-06  |            |       |100.00

Nlocal:        192.593 ave         208 max         182 min
Histogram: 2 3 3 4 5 6 2 0 1 1
Nghost:        1844.70 ave        1863 max        1823 min
Histogram: 3 4 0 0 2 3 6 1 3 5
Neighs:        16489.6 ave       18768 max       15221 min
Histogram: 4 2 4 6 7 1 2 0 0 1

Total # of neighbors = 445218
Ave neighs/atom = 85.618846
Neighbor list builds = 0
Dangerous builds = 0
unfix    eqmd
create_atoms  6 random  1  80924  NULL units box # not_read
Created 1 atoms
  using box units in orthogonal box = (-9.5291224 -9.5291224 -9.5291224) to (9.5291224 9.5291224 9.5291224)
  create_atoms CPU = 0.000 seconds
run 0 post no # temp=1.000000 unit_lj?=True velocity generated
WARNING: No fixes defined, atoms won't move (../verlet.cpp:55)
PPPM initialization ...
  using 12-bit tables for long-range coulomb (../kspace.cpp:340)
  G vector (1/distance) = 0.80650297
  grid = 36 36 36
  stencil order = 5
  estimated absolute RMS force accuracy = 8.1654387e-05
  estimated relative force accuracy = 8.1654387e-05
  using single precision KISS FFT
  3d grid and FFT values/proc = 4913 2592
Per MPI rank memory allocation (min/avg/max) = 5.425 | 5.447 | 5.489 Mbytes
Step Temp Atoms Density TotEng PotEng KinEng E_coul E_vdwl E_long Enthalpy Press 
   10400     1.007367     5201     0.751343 622424.023635 614566.564369  7857.459266   -68.583595 614953.435934  -318.287970 3184596.861527   370.134632 
Loop time of 3.41467e-06 on 27 procs for 0 steps with 5201 atoms

# generated_velocity_lj 5201 lj_solvent vel -1.792125 -0.029459 0.053224
group   widom_test  type    6 # insert lj
1 atoms in group widom_test
set type 6 charge 0.000000
Setting atom values ...
  1 settings made for charge
run 0 post no # insert flying molecule
WARNING: No fixes defined, atoms won't move (../verlet.cpp:55)
PPPM initialization ...
  using 12-bit tables for long-range coulomb (../kspace.cpp:340)
  G vector (1/distance) = 0.80650297
  grid = 36 36 36
  stencil order = 5
  estimated absolute RMS force accuracy = 8.1654387e-05
  estimated relative force accuracy = 8.1654387e-05
  using single precision KISS FFT
  3d grid and FFT values/proc = 4913 2592
Per MPI rank memory allocation (min/avg/max) = 5.425 | 5.447 | 5.489 Mbytes
Step Temp Atoms Density TotEng PotEng KinEng E_coul E_vdwl E_long Enthalpy Press 
   10400     1.007367     5201     0.751343 622424.023635 614566.564369  7857.459266   -68.583595 614953.435934  -318.287970 3184596.861527   370.134632 
Loop time of 3.75126e-06 on 27 procs for 0 steps with 5201 atoms

group noneq_run_rigid    intersect   all         water               # select_lj no selection
0 atoms in group noneq_run_rigid
group noneq_run          subtract    all         noneq_run_rigid     # select_lj no selection
5201 atoms in group noneq_run
run 0 post no # mom rev random number
WARNING: No fixes defined, atoms won't move (../verlet.cpp:55)
PPPM initialization ...
  using 12-bit tables for long-range coulomb (../kspace.cpp:340)
  G vector (1/distance) = 0.80650297
  grid = 36 36 36
  stencil order = 5
  estimated absolute RMS force accuracy = 8.1654387e-05
  estimated relative force accuracy = 8.1654387e-05
  using single precision KISS FFT
  3d grid and FFT values/proc = 4913 2592
Per MPI rank memory allocation (min/avg/max) = 5.425 | 5.447 | 5.489 Mbytes
Step Temp Atoms Density TotEng PotEng KinEng E_coul E_vdwl E_long Enthalpy Press 
   10400     1.007367     5201     0.751343 622424.023635 614566.564369  7857.459266   -68.583595 614953.435934  -318.287970 3184596.861527   370.134632 
Loop time of 3.3497e-06 on 27 procs for 0 steps with 5201 atoms

######################################################################
pair_style   lj/cut/coul/long/neq 2.500000 3.500000 10400 100 1.000000 5 1 0 1.000000 1.000000 11 1.000000
kspace_style pppm 0.0001

# LJ (neq? True)
# real lj particles
pair_coeff  * *         1.  1.  2.5   # solvent + ions
pair_coeff  4*5 4*5     0   0   2.5   # wall atoms

        
pair_modify  tail no shift yes mix arithmetic # LB mixing rule
neigh_modify delay 2 every 1 check yes page 500000 one 50000
######################################################################
timestep 0.010000
fix  eqmd  noneq_run           nve                 # nve for non-rigid
run 100 # (neq? True) MD run
PPPM initialization ...
  using 12-bit tables for long-range coulomb (../kspace.cpp:340)
  G vector (1/distance) = 0.80650297
  grid = 36 36 36
  stencil order = 5
  estimated absolute RMS force accuracy = 8.1654387e-05
  estimated relative force accuracy = 8.1654387e-05
  using single precision KISS FFT
  3d grid and FFT values/proc = 4913 2592
Neighbor list info ...
  update every 1 steps, delay 2 steps, check yes
  max neighbors/atom: 50000, page size: 500000
  master list distance cutoff = 3.8
  ghost atom cutoff = 3.8
  binsize = 1.9, bins = 11 11 11
  1 neighbor lists, perpetual/occasional/extra = 1 0 0
  (1) pair lj/cut/coul/long/neq, perpetual
      attributes: half, newton on
      pair build: half/bin/atomonly/newton
      stencil: half/bin/3d
      bin: standard
Per MPI rank memory allocation (min/avg/max) = 5.425 | 5.447 | 5.489 Mbytes
Step Temp Atoms Density TotEng PotEng KinEng E_coul E_vdwl E_long Enthalpy Press 
   10400     1.007367     5201     0.751343 -15630.918966 -23488.378232  7857.459266   -68.583595 -23101.506666  -318.287970 -8913.569634     0.970397 
   10500     1.000194     5201     0.751343 -15619.161494 -23420.671208  7801.509714   -58.720323 -23051.741183  -310.209701 -8841.713159     0.979079 
Loop time of 0.31519 on 27 procs for 100 steps with 5201 atoms

Performance: 274120.545 tau/day, 317.269 timesteps/s
92.0% CPU use with 27 MPI tasks x no OpenMP threads

MPI task timing breakdown:
Section |  min time  |  avg time  |  max time  |%varavg| %total
---------------------------------------------------------------
Pair    | 0.056068   | 0.095162   | 0.1137     |   5.6 | 30.19
Kspace  | 0.16087    | 0.18042    | 0.22093    |   4.3 | 57.24
Neigh   | 0.014497   | 0.020936   | 0.023729   |   2.0 |  6.64
Comm    | 0.014595   | 0.016288   | 0.021081   |   1.7 |  5.17
Output  | 6.131e-05  | 7.1791e-05 | 0.00019976 |   0.0 |  0.02
Modify  | 0.00033707 | 0.00053477 | 0.00067046 |   0.0 |  0.17
Other   |            | 0.00178    |            |       |  0.56

Nlocal:        192.630 ave         203 max         181 min
Histogram: 3 0 2 4 4 4 1 3 2 4
Nghost:        1838.93 ave        1868 max        1822 min
Histogram: 4 5 1 8 2 4 1 0 0 2
Neighs:        16498.8 ave       18099 max       14873 min
Histogram: 1 2 4 4 3 3 2 4 3 1

Total # of neighbors = 445468
Ave neighs/atom = 85.650452
Neighbor list builds = 25
Dangerous builds = 0
unfix    eqmd

group   solvent type 1
5000 atoms in group solvent
group   water   empty
0 atoms in group water
group   ions    type 2 3
200 atoms in group ions
group   wall    type 4 5
0 atoms in group wall
group   flying  type 6 7 8
1 atoms in group flying
group   eq_run  union solvent ions flying
5201 atoms in group eq_run
            
######################################################################
pair_style   lj/cut/coul/long 2.500000 3.500000
kspace_style pppm 0.0001

# LJ (neq? False)
# real lj particles
pair_coeff  * *         1.  1.  2.5   # solvent + ions
pair_coeff  4*5 4*5     0   0   2.5   # wall atoms

        
pair_modify  tail no shift yes mix arithmetic # LB mixing rule
neigh_modify delay 2 every 1 check yes page 500000 one 50000
######################################################################
run 0 post no # update forcefield; return to Eq
WARNING: No fixes defined, atoms won't move (../verlet.cpp:55)
PPPM initialization ...
  using 12-bit tables for long-range coulomb (../kspace.cpp:340)
  G vector (1/distance) = 0.80650297
  grid = 36 36 36
  stencil order = 5
  estimated absolute RMS force accuracy = 8.1654387e-05
  estimated relative force accuracy = 8.1654387e-05
  using single precision KISS FFT
  3d grid and FFT values/proc = 4913 2592
Neighbor list info ...
  update every 1 steps, delay 2 steps, check yes
  max neighbors/atom: 50000, page size: 500000
  master list distance cutoff = 3.8
  ghost atom cutoff = 3.8
  binsize = 1.9, bins = 11 11 11
  1 neighbor lists, perpetual/occasional/extra = 1 0 0
  (1) pair lj/cut/coul/long, perpetual
      attributes: half, newton on
      pair build: half/bin/atomonly/newton
      stencil: half/bin/3d
      bin: standard
Per MPI rank memory allocation (min/avg/max) = 5.425 | 5.447 | 5.489 Mbytes
Step Temp Atoms Density TotEng PotEng KinEng E_coul E_vdwl E_long Enthalpy Press 
   10500     1.000194     5201     0.751343 -15619.161493 -23420.671207  7801.509714   -58.720323 -23051.741183  -310.209701 -8841.713159     0.979079 
Loop time of 3.25363e-06 on 27 procs for 0 steps with 5201 atoms

# done post_propagate after NEMD
delete_atoms group widom_test compress no # lj bond yes mol yes # reject_insert
Deleted 1 atoms, new total = 5200
run 0 post no # delete trial-inserted flying molecule
WARNING: No fixes defined, atoms won't move (../verlet.cpp:55)
PPPM initialization ...
  using 12-bit tables for long-range coulomb (../kspace.cpp:340)
  G vector (1/distance) = 0.80650466
  grid = 36 36 36
  stencil order = 5
  estimated absolute RMS force accuracy = 8.1661187e-05
  estimated relative force accuracy = 8.1661187e-05
  using single precision KISS FFT
  3d grid and FFT values/proc = 4913 2592
Per MPI rank memory allocation (min/avg/max) = 5.425 | 5.447 | 5.489 Mbytes
Step Temp Atoms Density TotEng PotEng KinEng E_coul E_vdwl E_long Enthalpy Press 
   10500     1.000196     5200     0.751198 -15610.208586 -23410.234524  7800.025938   -58.720037 -23041.304500  -310.209987 -8826.700938     0.979954 
Loop time of 2.77211e-06 on 27 procs for 0 steps with 5200 atoms

run 0 post no # return_position back to old
WARNING: No fixes defined, atoms won't move (../verlet.cpp:55)
PPPM initialization ...
  using 12-bit tables for long-range coulomb (../kspace.cpp:340)
  G vector (1/distance) = 0.80650466
  grid = 36 36 36
  stencil order = 5
  estimated absolute RMS force accuracy = 8.1661187e-05
  estimated relative force accuracy = 8.1661187e-05
  using single precision KISS FFT
  3d grid and FFT values/proc = 4913 2592
Per MPI rank memory allocation (min/avg/max) = 5.425 | 5.447 | 5.489 Mbytes
Step Temp Atoms Density TotEng PotEng KinEng E_coul E_vdwl E_long Enthalpy Press 
   10500     1.007354     5200     0.751198 -15628.423140 -23484.274699  7855.851559   -68.583271 -23097.403133  -318.288295 -8907.810220     0.970868 
Loop time of 3.15689e-06 on 27 procs for 0 steps with 5200 atoms

group widom_test         delete
group noneq_run          delete
group noneq_run_rigid    delete
reset_timestep 10400

group   solvent delete
group   water   delete
group   ions    delete
group   wall    delete
group   flying  delete
group   eq_run  delete
        

group   solvent type 1
5000 atoms in group solvent
group   water   empty
0 atoms in group water
group   ions    type 2 3
200 atoms in group ions
group   wall    type 4 5
0 atoms in group wall
group   flying  type 6 7 8
0 atoms in group flying
group   eq_run  union solvent ions flying
5200 atoms in group eq_run
            
######################################################################
pair_style   lj/cut/coul/long 2.500000 3.500000
kspace_style pppm 0.0001

# LJ (neq? False)
# real lj particles
pair_coeff  * *         1.  1.  2.5   # solvent + ions
pair_coeff  4*5 4*5     0   0   2.5   # wall atoms

        
pair_modify  tail no shift yes mix arithmetic # LB mixing rule
neigh_modify delay 2 every 1 check yes page 500000 one 50000
######################################################################
# shake is off; should be a dummy run
timestep 0.005000
thermo 2000
fix  eqmd   eq_run nvt temp 1.000000 1.000000 0.500000
run 0 # (neq? False) MD run
PPPM initialization ...
  using 12-bit tables for long-range coulomb (../kspace.cpp:340)
  G vector (1/distance) = 0.80650466
  grid = 36 36 36
  stencil order = 5
  estimated absolute RMS force accuracy = 8.1661187e-05
  estimated relative force accuracy = 8.1661187e-05
  using single precision KISS FFT
  3d grid and FFT values/proc = 4913 2592
Per MPI rank memory allocation (min/avg/max) = 5.425 | 5.447 | 5.489 Mbytes
Step Temp Atoms Density TotEng PotEng KinEng E_coul E_vdwl E_long Enthalpy Press 
   10400     1.007354     5200     0.751198 -15628.423140 -23484.274699  7855.851559   -68.583271 -23097.403133  -318.288295 -8907.810220     0.970868 
Loop time of 3.01681e-06 on 27 procs for 0 steps with 5200 atoms

4.9% CPU use with 27 MPI tasks x no OpenMP threads

MPI task timing breakdown:
Section |  min time  |  avg time  |  max time  |%varavg| %total
---------------------------------------------------------------
Pair    | 0          | 0          | 0          |   0.0 |  0.00
Kspace  | 0          | 0          | 0          |   0.0 |  0.00
Neigh   | 0          | 0          | 0          |   0.0 |  0.00
Comm    | 0          | 0          | 0          |   0.0 |  0.00
Output  | 0          | 0          | 0          |   0.0 |  0.00
Modify  | 0          | 0          | 0          |   0.0 |  0.00
Other   |            | 3.017e-06  |            |       |100.00

Nlocal:        192.593 ave         208 max         182 min
Histogram: 2 3 3 4 5 6 2 0 1 1
Nghost:        1844.70 ave        1863 max        1823 min
Histogram: 3 4 0 0 2 3 6 1 3 5
Neighs:        16489.6 ave       18768 max       15221 min
Histogram: 4 2 4 6 7 1 2 0 0 1

Total # of neighbors = 445218
Ave neighs/atom = 85.618846
Neighbor list builds = 0
Dangerous builds = 0
unfix    eqmd
create_atoms  6 random  1  49105  NULL units box # not_read
Created 1 atoms
  using box units in orthogonal box = (-9.5291224 -9.5291224 -9.5291224) to (9.5291224 9.5291224 9.5291224)
  create_atoms CPU = 0.000 seconds
run 0 post no # temp=1.000000 unit_lj?=True velocity generated
WARNING: No fixes defined, atoms won't move (../verlet.cpp:55)
PPPM initialization ...
  using 12-bit tables for long-range coulomb (../kspace.cpp:340)
  G vector (1/distance) = 0.80650297
  grid = 36 36 36
  stencil order = 5
  estimated absolute RMS force accuracy = 8.1654387e-05
  estimated relative force accuracy = 8.1654387e-05
  using single precision KISS FFT
  3d grid and FFT values/proc = 4913 2592
Per MPI rank memory allocation (min/avg/max) = 5.425 | 5.447 | 5.489 Mbytes
Step Temp Atoms Density TotEng PotEng KinEng E_coul E_vdwl E_long Enthalpy Press 
   10400     1.007313     5201     0.751343 -4575.370176 -12432.411579  7857.041403   -68.583595 -12045.540014  -318.287970 46878.501026     7.433089 
Loop time of 2.93674e-06 on 27 procs for 0 steps with 5201 atoms

# generated_velocity_lj 5201 lj_solvent vel 0.288993 -1.512985 0.083957
group   widom_test  type    6 # insert lj
1 atoms in group widom_test
set type 6 charge 0.000000
Setting atom values ...
  1 settings made for charge
run 0 post no # insert flying molecule
WARNING: No fixes defined, atoms won't move (../verlet.cpp:55)
PPPM initialization ...
  using 12-bit tables for long-range coulomb (../kspace.cpp:340)
  G vector (1/distance) = 0.80650297
  grid = 36 36 36
  stencil order = 5
  estimated absolute RMS force accuracy = 8.1654387e-05
  estimated relative force accuracy = 8.1654387e-05
  using single precision KISS FFT
  3d grid and FFT values/proc = 4913 2592
Per MPI rank memory allocation (min/avg/max) = 5.425 | 5.447 | 5.489 Mbytes
Step Temp Atoms Density TotEng PotEng KinEng E_coul E_vdwl E_long Enthalpy Press 
   10400     1.007313     5201     0.751343 -4575.370176 -12432.411579  7857.041403   -68.583595 -12045.540014  -318.287970 46878.501026     7.433089 
Loop time of 3.13448e-06 on 27 procs for 0 steps with 5201 atoms

group noneq_run_rigid    intersect   all         water               # select_lj no selection
0 atoms in group noneq_run_rigid
group noneq_run          subtract    all         noneq_run_rigid     # select_lj no selection
5201 atoms in group noneq_run
run 0 post no # mom rev random number
WARNING: No fixes defined, atoms won't move (../verlet.cpp:55)
PPPM initialization ...
  using 12-bit tables for long-range coulomb (../kspace.cpp:340)
  G vector (1/distance) = 0.80650297
  grid = 36 36 36
  stencil order = 5
  estimated absolute RMS force accuracy = 8.1654387e-05
  estimated relative force accuracy = 8.1654387e-05
  using single precision KISS FFT
  3d grid and FFT values/proc = 4913 2592
Per MPI rank memory allocation (min/avg/max) = 5.425 | 5.447 | 5.489 Mbytes
Step Temp Atoms Density TotEng PotEng KinEng E_coul E_vdwl E_long Enthalpy Press 
   10400     1.007313     5201     0.751343 -4575.370176 -12432.411579  7857.041403   -68.583595 -12045.540014  -318.287970 46878.501026     7.433089 
Loop time of 3.12444e-06 on 27 procs for 0 steps with 5201 atoms

######################################################################
pair_style   lj/cut/coul/long/neq 2.500000 3.500000 10400 100 1.000000 5 1 0 1.000000 1.000000 11 1.000000
kspace_style pppm 0.0001

# LJ (neq? True)
# real lj particles
pair_coeff  * *         1.  1.  2.5   # solvent + ions
pair_coeff  4*5 4*5     0   0   2.5   # wall atoms

        
pair_modify  tail no shift yes mix arithmetic # LB mixing rule
neigh_modify delay 2 every 1 check yes page 500000 one 50000
######################################################################
timestep 0.010000
fix  eqmd  noneq_run           nve                 # nve for non-rigid
run 100 # (neq? True) MD run
PPPM initialization ...
  using 12-bit tables for long-range coulomb (../kspace.cpp:340)
  G vector (1/distance) = 0.80650297
  grid = 36 36 36
  stencil order = 5
  estimated absolute RMS force accuracy = 8.1654387e-05
  estimated relative force accuracy = 8.1654387e-05
  using single precision KISS FFT
  3d grid and FFT values/proc = 4913 2592
Neighbor list info ...
  update every 1 steps, delay 2 steps, check yes
  max neighbors/atom: 50000, page size: 500000
  master list distance cutoff = 3.8
  ghost atom cutoff = 3.8
  binsize = 1.9, bins = 11 11 11
  1 neighbor lists, perpetual/occasional/extra = 1 0 0
  (1) pair lj/cut/coul/long/neq, perpetual
      attributes: half, newton on
      pair build: half/bin/atomonly/newton
      stencil: half/bin/3d
      bin: standard
Per MPI rank memory allocation (min/avg/max) = 5.425 | 5.447 | 5.489 Mbytes
Step Temp Atoms Density TotEng PotEng KinEng E_coul E_vdwl E_long Enthalpy Press 
   10400     1.007313     5201     0.751343 -15632.276178 -23489.317581  7857.041403   -68.583595 -23102.446015  -318.287970 -8916.035990     0.970236 
   10500     1.003399     5201     0.751343 -15619.748900 -23446.264302  7826.515402   -58.154317 -23077.553010  -310.556975 -8997.281082     0.956690 
Loop time of 0.309071 on 27 procs for 100 steps with 5201 atoms

Performance: 279547.622 tau/day, 323.550 timesteps/s
92.6% CPU use with 27 MPI tasks x no OpenMP threads

MPI task timing breakdown:
Section |  min time  |  avg time  |  max time  |%varavg| %total
---------------------------------------------------------------
Pair    | 0.056504   | 0.094901   | 0.11209    |   5.5 | 30.71
Kspace  | 0.15783    | 0.17544    | 0.21525    |   4.2 | 56.76
Neigh   | 0.014598   | 0.021123   | 0.024151   |   2.0 |  6.83
Comm    | 0.013558   | 0.015396   | 0.020215   |   1.7 |  4.98
Output  | 5.5013e-05 | 6.5536e-05 | 0.00018992 |   0.0 |  0.02
Modify  | 0.00035036 | 0.0005265  | 0.00070735 |   0.0 |  0.17
Other   |            | 0.001623   |            |       |  0.53

Nlocal:        192.630 ave         202 max         181 min
Histogram: 2 1 1 4 4 5 1 2 1 6
Nghost:        1841.63 ave        1869 max        1824 min
Histogram: 3 2 6 3 5 2 3 1 1 1
Neighs:        16495.1 ave       17984 max       14869 min
Histogram: 1 2 3 4 2 4 3 3 3 2

Total # of neighbors = 445368
Ave neighs/atom = 85.631225
Neighbor list builds = 25
Dangerous builds = 0
unfix    eqmd

group   solvent type 1
5000 atoms in group solvent
group   water   empty
0 atoms in group water
group   ions    type 2 3
200 atoms in group ions
group   wall    type 4 5
0 atoms in group wall
group   flying  type 6 7 8
1 atoms in group flying
group   eq_run  union solvent ions flying
5201 atoms in group eq_run
            
######################################################################
pair_style   lj/cut/coul/long 2.500000 3.500000
kspace_style pppm 0.0001

# LJ (neq? False)
# real lj particles
pair_coeff  * *         1.  1.  2.5   # solvent + ions
pair_coeff  4*5 4*5     0   0   2.5   # wall atoms

        
pair_modify  tail no shift yes mix arithmetic # LB mixing rule
neigh_modify delay 2 every 1 check yes page 500000 one 50000
######################################################################
run 0 post no # update forcefield; return to Eq
WARNING: No fixes defined, atoms won't move (../verlet.cpp:55)
PPPM initialization ...
  using 12-bit tables for long-range coulomb (../kspace.cpp:340)
  G vector (1/distance) = 0.80650297
  grid = 36 36 36
  stencil order = 5
  estimated absolute RMS force accuracy = 8.1654387e-05
  estimated relative force accuracy = 8.1654387e-05
  using single precision KISS FFT
  3d grid and FFT values/proc = 4913 2592
Neighbor list info ...
  update every 1 steps, delay 2 steps, check yes
  max neighbors/atom: 50000, page size: 500000
  master list distance cutoff = 3.8
  ghost atom cutoff = 3.8
  binsize = 1.9, bins = 11 11 11
  1 neighbor lists, perpetual/occasional/extra = 1 0 0
  (1) pair lj/cut/coul/long, perpetual
      attributes: half, newton on
      pair build: half/bin/atomonly/newton
      stencil: half/bin/3d
      bin: standard
Per MPI rank memory allocation (min/avg/max) = 5.425 | 5.447 | 5.489 Mbytes
Step Temp Atoms Density TotEng PotEng KinEng E_coul E_vdwl E_long Enthalpy Press 
   10500     1.003399     5201     0.751343 -15619.748900 -23446.264302  7826.515402   -58.154317 -23077.553010  -310.556974 -8997.281082     0.956690 
Loop time of 2.88726e-06 on 27 procs for 0 steps with 5201 atoms

# done post_propagate after NEMD
delete_atoms group widom_test compress no # lj bond yes mol yes # reject_insert
Deleted 1 atoms, new total = 5200
run 0 post no # delete trial-inserted flying molecule
WARNING: No fixes defined, atoms won't move (../verlet.cpp:55)
PPPM initialization ...
  using 12-bit tables for long-range coulomb (../kspace.cpp:340)
  G vector (1/distance) = 0.80650466
  grid = 36 36 36
  stencil order = 5
  estimated absolute RMS force accuracy = 8.1661187e-05
  estimated relative force accuracy = 8.1661187e-05
  using single precision KISS FFT
  3d grid and FFT values/proc = 4913 2592
Per MPI rank memory allocation (min/avg/max) = 5.425 | 5.447 | 5.489 Mbytes
Step Temp Atoms Density TotEng PotEng KinEng E_coul E_vdwl E_long Enthalpy Press 
   10500     1.003364     5200     0.751198 -15611.272081 -23436.006882  7824.734801   -58.154032 -23067.295590  -310.557260 -8984.900065     0.957254 
Loop time of 3.0497e-06 on 27 procs for 0 steps with 5200 atoms

run 0 post no # return_position back to old
WARNING: No fixes defined, atoms won't move (../verlet.cpp:55)
PPPM initialization ...
  using 12-bit tables for long-range coulomb (../kspace.cpp:340)
  G vector (1/distance) = 0.80650466
  grid = 36 36 36
  stencil order = 5
  estimated absolute RMS force accuracy = 8.1661187e-05
  estimated relative force accuracy = 8.1661187e-05
  using single precision KISS FFT
  3d grid and FFT values/proc = 4913 2592
Per MPI rank memory allocation (min/avg/max) = 5.425 | 5.447 | 5.489 Mbytes
Step Temp Atoms Density TotEng PotEng KinEng E_coul E_vdwl E_long Enthalpy Press 
   10500     1.007354     5200     0.751198 -15628.423140 -23484.274699  7855.851559   -68.583271 -23097.403133  -318.288295 -8907.810220     0.970868 
Loop time of 2.93837e-06 on 27 procs for 0 steps with 5200 atoms

group widom_test         delete
group noneq_run          delete
group noneq_run_rigid    delete
reset_timestep 10400

group   solvent delete
group   water   delete
group   ions    delete
group   wall    delete
group   flying  delete
group   eq_run  delete
        

group   solvent type 1
5000 atoms in group solvent
group   water   empty
0 atoms in group water
group   ions    type 2 3
200 atoms in group ions
group   wall    type 4 5
0 atoms in group wall
group   flying  type 6 7 8
0 atoms in group flying
group   eq_run  union solvent ions flying
5200 atoms in group eq_run
            
######################################################################
pair_style   lj/cut/coul/long 2.500000 3.500000
kspace_style pppm 0.0001

# LJ (neq? False)
# real lj particles
pair_coeff  * *         1.  1.  2.5   # solvent + ions
pair_coeff  4*5 4*5     0   0   2.5   # wall atoms

        
pair_modify  tail no shift yes mix arithmetic # LB mixing rule
neigh_modify delay 2 every 1 check yes page 500000 one 50000
######################################################################
# shake is off; should be a dummy run
timestep 0.005000
thermo 2000
fix  eqmd   eq_run nvt temp 1.000000 1.000000 0.500000
run 0 # (neq? False) MD run
PPPM initialization ...
  using 12-bit tables for long-range coulomb (../kspace.cpp:340)
  G vector (1/distance) = 0.80650466
  grid = 36 36 36
  stencil order = 5
  estimated absolute RMS force accuracy = 8.1661187e-05
  estimated relative force accuracy = 8.1661187e-05
  using single precision KISS FFT
  3d grid and FFT values/proc = 4913 2592
Per MPI rank memory allocation (min/avg/max) = 5.425 | 5.447 | 5.489 Mbytes
Step Temp Atoms Density TotEng PotEng KinEng E_coul E_vdwl E_long Enthalpy Press 
   10400     1.007354     5200     0.751198 -15628.423140 -23484.274699  7855.851559   -68.583271 -23097.403133  -318.288295 -8907.810220     0.970868 
Loop time of 3.72885e-06 on 27 procs for 0 steps with 5200 atoms

108.3% CPU use with 27 MPI tasks x no OpenMP threads

MPI task timing breakdown:
Section |  min time  |  avg time  |  max time  |%varavg| %total
---------------------------------------------------------------
Pair    | 0          | 0          | 0          |   0.0 |  0.00
Kspace  | 0          | 0          | 0          |   0.0 |  0.00
Neigh   | 0          | 0          | 0          |   0.0 |  0.00
Comm    | 0          | 0          | 0          |   0.0 |  0.00
Output  | 0          | 0          | 0          |   0.0 |  0.00
Modify  | 0          | 0          | 0          |   0.0 |  0.00
Other   |            | 3.729e-06  |            |       |100.00

Nlocal:        192.593 ave         208 max         182 min
Histogram: 2 3 3 4 5 6 2 0 1 1
Nghost:        1844.70 ave        1863 max        1823 min
Histogram: 3 4 0 0 2 3 6 1 3 5
Neighs:        16489.6 ave       18768 max       15221 min
Histogram: 4 2 4 6 7 1 2 0 0 1

Total # of neighbors = 445218
Ave neighs/atom = 85.618846
Neighbor list builds = 0
Dangerous builds = 0
unfix    eqmd
create_atoms  6 random  1  65431  NULL units box # not_read
Created 1 atoms
  using box units in orthogonal box = (-9.5291224 -9.5291224 -9.5291224) to (9.5291224 9.5291224 9.5291224)
  create_atoms CPU = 0.000 seconds
run 0 post no # temp=1.000000 unit_lj?=True velocity generated
WARNING: No fixes defined, atoms won't move (../verlet.cpp:55)
PPPM initialization ...
  using 12-bit tables for long-range coulomb (../kspace.cpp:340)
  G vector (1/distance) = 0.80650297
  grid = 36 36 36
  stencil order = 5
  estimated absolute RMS force accuracy = 8.1654387e-05
  estimated relative force accuracy = 8.1654387e-05
  using single precision KISS FFT
  3d grid and FFT values/proc = 4913 2592
Per MPI rank memory allocation (min/avg/max) = 5.425 | 5.447 | 5.489 Mbytes
Step Temp Atoms Density TotEng PotEng KinEng E_coul E_vdwl E_long Enthalpy Press 
   10400     1.007182     5201     0.751343 8897567.588188 8889711.564954  7856.023234   -68.583595 8890098.436520  -318.287970 44569053.342409  5153.146597 
Loop time of 4.31115e-06 on 27 procs for 0 steps with 5201 atoms

# generated_velocity_lj 5201 lj_solvent vel 0.467118 0.334249 0.115882
group   widom_test  type    6 # insert lj
1 atoms in group widom_test
set type 6 charge 0.000000
Setting atom values ...
  1 settings made for charge
run 0 post no # insert flying molecule
WARNING: No fixes defined, atoms won't move (../verlet.cpp:55)
PPPM initialization ...
  using 12-bit tables for long-range coulomb (../kspace.cpp:340)
  G vector (1/distance) = 0.80650297
  grid = 36 36 36
  stencil order = 5
  estimated absolute RMS force accuracy = 8.1654387e-05
  estimated relative force accuracy = 8.1654387e-05
  using single precision KISS FFT
  3d grid and FFT values/proc = 4913 2592
Per MPI rank memory allocation (min/avg/max) = 5.425 | 5.447 | 5.489 Mbytes
Step Temp Atoms Density TotEng PotEng KinEng E_coul E_vdwl E_long Enthalpy Press 
   10400     1.007182     5201     0.751343 8897567.588188 8889711.564954  7856.023234   -68.583595 8890098.436520  -318.287970 44569053.342409  5153.146597 
Loop time of 3.19641e-06 on 27 procs for 0 steps with 5201 atoms

group noneq_run_rigid    intersect   all         water               # select_lj no selection
0 atoms in group noneq_run_rigid
group noneq_run          subtract    all         noneq_run_rigid     # select_lj no selection
5201 atoms in group noneq_run
run 0 post no # mom rev random number
WARNING: No fixes defined, atoms won't move (../verlet.cpp:55)
PPPM initialization ...
  using 12-bit tables for long-range coulomb (../kspace.cpp:340)
  G vector (1/distance) = 0.80650297
  grid = 36 36 36
  stencil order = 5
  estimated absolute RMS force accuracy = 8.1654387e-05
  estimated relative force accuracy = 8.1654387e-05
  using single precision KISS FFT
  3d grid and FFT values/proc = 4913 2592
Per MPI rank memory allocation (min/avg/max) = 5.425 | 5.447 | 5.489 Mbytes
Step Temp Atoms Density TotEng PotEng KinEng E_coul E_vdwl E_long Enthalpy Press 
   10400     1.007182     5201     0.751343 8897567.588188 8889711.564954  7856.023234   -68.583595 8890098.436520  -318.287970 44569053.342409  5153.146597 
Loop time of 3.06219e-06 on 27 procs for 0 steps with 5201 atoms

######################################################################
pair_style   lj/cut/coul/long/neq 2.500000 3.500000 10400 100 1.000000 5 1 0 1.000000 1.000000 11 1.000000
kspace_style pppm 0.0001

# LJ (neq? True)
# real lj particles
pair_coeff  * *         1.  1.  2.5   # solvent + ions
pair_coeff  4*5 4*5     0   0   2.5   # wall atoms

        
pair_modify  tail no shift yes mix arithmetic # LB mixing rule
neigh_modify delay 2 every 1 check yes page 500000 one 50000
######################################################################
timestep 0.010000
fix  eqmd  noneq_run           nve                 # nve for non-rigid
run 100 # (neq? True) MD run
PPPM initialization ...
  using 12-bit tables for long-range coulomb (../kspace.cpp:340)
  G vector (1/distance) = 0.80650297
  grid = 36 36 36
  stencil order = 5
  estimated absolute RMS force accuracy = 8.1654387e-05
  estimated relative force accuracy = 8.1654387e-05
  using single precision KISS FFT
  3d grid and FFT values/proc = 4913 2592
Neighbor list info ...
  update every 1 steps, delay 2 steps, check yes
  max neighbors/atom: 50000, page size: 500000
  master list distance cutoff = 3.8
  ghost atom cutoff = 3.8
  binsize = 1.9, bins = 11 11 11
  1 neighbor lists, perpetual/occasional/extra = 1 0 0
  (1) pair lj/cut/coul/long/neq, perpetual
      attributes: half, newton on
      pair build: half/bin/atomonly/newton
      stencil: half/bin/3d
      bin: standard
Per MPI rank memory allocation (min/avg/max) = 5.425 | 5.447 | 5.489 Mbytes
Step Temp Atoms Density TotEng PotEng KinEng E_coul E_vdwl E_long Enthalpy Press 
   10400     1.007182     5201     0.751343 -15631.218903 -23487.242137  7856.023234   -68.583595 -23100.370571  -318.287970 -8913.741417     0.970415 
   10500     1.003302     5201     0.751343 -15615.503084 -23441.257538  7825.754454   -59.263680 -23070.650797  -311.343060 -8900.997747     0.969986 
Loop time of 0.310722 on 27 procs for 100 steps with 5201 atoms

Performance: 278062.000 tau/day, 321.831 timesteps/s
93.3% CPU use with 27 MPI tasks x no OpenMP threads

MPI task timing breakdown:
Section |  min time  |  avg time  |  max time  |%varavg| %total
---------------------------------------------------------------
Pair    | 0.058072   | 0.095243   | 0.11179    |   5.5 | 30.65
Kspace  | 0.15804    | 0.17663    | 0.21467    |   4.2 | 56.85
Neigh   | 0.014717   | 0.021098   | 0.024405   |   1.9 |  6.79
Comm    | 0.013951   | 0.015488   | 0.020231   |   1.7 |  4.98
Output  | 5.1819e-05 | 6.242e-05  | 0.00019611 |   0.0 |  0.02
Modify  | 0.00034339 | 0.00051866 | 0.0007273  |   0.0 |  0.17
Other   |            | 0.00168    |            |       |  0.54

Nlocal:        192.630 ave         203 max         179 min
Histogram: 1 1 3 2 2 9 0 4 1 4
Nghost:        1843.30 ave        1871 max        1824 min
Histogram: 3 2 5 3 6 4 0 2 0 2
Neighs:        16500.7 ave       18083 max       14721 min
Histogram: 1 2 3 3 3 4 5 2 1 3

Total # of neighbors = 445518
Ave neighs/atom = 85.660065
Neighbor list builds = 25
Dangerous builds = 0
unfix    eqmd

group   solvent type 1
5000 atoms in group solvent
group   water   empty
0 atoms in group water
group   ions    type 2 3
200 atoms in group ions
group   wall    type 4 5
0 atoms in group wall
group   flying  type 6 7 8
1 atoms in group flying
group   eq_run  union solvent ions flying
5201 atoms in group eq_run
            
######################################################################
pair_style   lj/cut/coul/long 2.500000 3.500000
kspace_style pppm 0.0001

# LJ (neq? False)
# real lj particles
pair_coeff  * *         1.  1.  2.5   # solvent + ions
pair_coeff  4*5 4*5     0   0   2.5   # wall atoms

        
pair_modify  tail no shift yes mix arithmetic # LB mixing rule
neigh_modify delay 2 every 1 check yes page 500000 one 50000
######################################################################
run 0 post no # update forcefield; return to Eq
WARNING: No fixes defined, atoms won't move (../verlet.cpp:55)
PPPM initialization ...
  using 12-bit tables for long-range coulomb (../kspace.cpp:340)
  G vector (1/distance) = 0.80650297
  grid = 36 36 36
  stencil order = 5
  estimated absolute RMS force accuracy = 8.1654387e-05
  estimated relative force accuracy = 8.1654387e-05
  using single precision KISS FFT
  3d grid and FFT values/proc = 4913 2592
Neighbor list info ...
  update every 1 steps, delay 2 steps, check yes
  max neighbors/atom: 50000, page size: 500000
  master list distance cutoff = 3.8
  ghost atom cutoff = 3.8
  binsize = 1.9, bins = 11 11 11
  1 neighbor lists, perpetual/occasional/extra = 1 0 0
  (1) pair lj/cut/coul/long, perpetual
      attributes: half, newton on
      pair build: half/bin/atomonly/newton
      stencil: half/bin/3d
      bin: standard
Per MPI rank memory allocation (min/avg/max) = 5.425 | 5.447 | 5.489 Mbytes
Step Temp Atoms Density TotEng PotEng KinEng E_coul E_vdwl E_long Enthalpy Press 
   10500     1.003302     5201     0.751343 -15615.503084 -23441.257538  7825.754454   -59.263680 -23070.650797  -311.343060 -8900.997747     0.969986 
Loop time of 2.80685e-06 on 27 procs for 0 steps with 5201 atoms

# done post_propagate after NEMD
delete_atoms group widom_test compress no # lj bond yes mol yes # reject_insert
[...]
  estimated relative force accuracy = 8.1654387e-05
  using single precision KISS FFT
  3d grid and FFT values/proc = 4913 2592
Neighbor list info ...
  update every 1 steps, delay 2 steps, check yes
  max neighbors/atom: 50000, page size: 500000
  master list distance cutoff = 3.8
  ghost atom cutoff = 3.8
  binsize = 1.9, bins = 11 11 11
  1 neighbor lists, perpetual/occasional/extra = 1 0 0
  (1) pair lj/cut/coul/long/neq, perpetual
      attributes: half, newton on
      pair build: half/bin/atomonly/newton
      stencil: half/bin/3d
      bin: standard
Per MPI rank memory allocation (min/avg/max) = 5.425 | 5.447 | 5.489 Mbytes
Step Temp Atoms Density TotEng PotEng KinEng E_coul E_vdwl E_long Enthalpy Press 
   10400     1.007254     5201     0.751343 -15632.161342 -23488.741640  7856.580297   -68.583595 -23101.870074  -318.287970 -8916.103683     0.970210 
   10500     0.999358     5201     0.751343 -15615.909746 -23410.904684  7794.994938   -58.378751 -23041.971072  -310.554861 -8828.632250     0.980498 
Loop time of 0.308729 on 27 procs for 100 steps with 5201 atoms

Performance: 279856.963 tau/day, 323.909 timesteps/s
92.3% CPU use with 27 MPI tasks x no OpenMP threads

MPI task timing breakdown:
Section |  min time  |  avg time  |  max time  |%varavg| %total
---------------------------------------------------------------
Pair    | 0.056873   | 0.095023   | 0.1112     |   5.4 | 30.78
Kspace  | 0.15786    | 0.17511    | 0.21474    |   4.2 | 56.72
Neigh   | 0.014538   | 0.020929   | 0.023631   |   2.0 |  6.78
Comm    | 0.013722   | 0.015377   | 0.020045   |   1.7 |  4.98
Output  | 5.5388e-05 | 6.6414e-05 | 0.00019654 |   0.0 |  0.02
Modify  | 0.00035151 | 0.00052418 | 0.00081365 |   0.0 |  0.17
Other   |            | 0.001701   |            |       |  0.55

Nlocal:        192.630 ave         203 max         180 min
Histogram: 2 1 1 6 1 7 0 3 2 4
Nghost:        1842.93 ave        1870 max        1828 min
Histogram: 5 2 4 5 5 1 2 1 1 1
Neighs:        16499.9 ave       18079 max       14756 min
Histogram: 1 2 2 6 1 5 2 4 1 3

Total # of neighbors = 445496
Ave neighs/atom = 85.655835
Neighbor list builds = 25
Dangerous builds = 0
unfix    eqmd

group   solvent type 1
5000 atoms in group solvent
group   water   empty
0 atoms in group water
group   ions    type 2 3
200 atoms in group ions
group   wall    type 4 5
0 atoms in group wall
group   flying  type 6 7 8
1 atoms in group flying
group   eq_run  union solvent ions flying
5201 atoms in group eq_run
            
######################################################################
pair_style   lj/cut/coul/long 2.500000 3.500000
kspace_style pppm 0.0001

# LJ (neq? False)
# real lj particles
pair_coeff  * *         1.  1.  2.5   # solvent + ions
pair_coeff  4*5 4*5     0   0   2.5   # wall atoms

        
pair_modify  tail no shift yes mix arithmetic # LB mixing rule
neigh_modify delay 2 every 1 check yes page 500000 one 50000
######################################################################
run 0 post no # update forcefield; return to Eq
WARNING: No fixes defined, atoms won't move (../verlet.cpp:55)
PPPM initialization ...
  using 12-bit tables for long-range coulomb (../kspace.cpp:340)
  G vector (1/distance) = 0.80650297
  grid = 36 36 36
  stencil order = 5
  estimated absolute RMS force accuracy = 8.1654387e-05
  estimated relative force accuracy = 8.1654387e-05
  using single precision KISS FFT
  3d grid and FFT values/proc = 4913 2592
Neighbor list info ...
  update every 1 steps, delay 2 steps, check yes
  max neighbors/atom: 50000, page size: 500000
  master list distance cutoff = 3.8
  ghost atom cutoff = 3.8
  binsize = 1.9, bins = 11 11 11
  1 neighbor lists, perpetual/occasional/extra = 1 0 0
  (1) pair lj/cut/coul/long, perpetual
      attributes: half, newton on
      pair build: half/bin/atomonly/newton
      stencil: half/bin/3d
      bin: standard
Per MPI rank memory allocation (min/avg/max) = 5.425 | 5.447 | 5.489 Mbytes
Step Temp Atoms Density TotEng PotEng KinEng E_coul E_vdwl E_long Enthalpy Press 
   10500     0.999358     5201     0.751343 -15615.909746 -23410.904684  7794.994938   -58.378751 -23041.971072  -310.554861 -8828.632250     0.980498 
Loop time of 2.78541e-06 on 27 procs for 0 steps with 5201 atoms

# done post_propagate after NEMD
delete_atoms group widom_test compress no # lj bond yes mol yes # reject_insert
Deleted 1 atoms, new total = 5200
run 0 post no # delete trial-inserted flying molecule
WARNING: No fixes defined, atoms won't move (../verlet.cpp:55)
PPPM initialization ...
  using 12-bit tables for long-range coulomb (../kspace.cpp:340)
  G vector (1/distance) = 0.80650466
  grid = 36 36 36
  stencil order = 5
  estimated absolute RMS force accuracy = 8.1661187e-05
  estimated relative force accuracy = 8.1661187e-05
  using single precision KISS FFT
  3d grid and FFT values/proc = 4913 2592
Per MPI rank memory allocation (min/avg/max) = 5.425 | 5.447 | 5.489 Mbytes
Step Temp Atoms Density TotEng PotEng KinEng E_coul E_vdwl E_long Enthalpy Press 
   10500     0.999221     5200     0.751198 -15610.495985 -23402.922787  7792.426801   -58.378465 -23033.989175  -310.555146 -8827.918045     0.979820 
Loop time of 2.93548e-06 on 27 procs for 0 steps with 5200 atoms

run 0 post no # return_position back to old
WARNING: No fixes defined, atoms won't move (../verlet.cpp:55)
PPPM initialization ...
  using 12-bit tables for long-range coulomb (../kspace.cpp:340)
  G vector (1/distance) = 0.80650466
  grid = 36 36 36
  stencil order = 5
  estimated absolute RMS force accuracy = 8.1661187e-05
  estimated relative force accuracy = 8.1661187e-05
  using single precision KISS FFT
  3d grid and FFT values/proc = 4913 2592
Per MPI rank memory allocation (min/avg/max) = 5.425 | 5.447 | 5.489 Mbytes
Step Temp Atoms Density TotEng PotEng KinEng E_coul E_vdwl E_long Enthalpy Press 
   10500     1.007354     5200     0.751198 -15628.423140 -23484.274699  7855.851559   -68.583271 -23097.403133  -318.288295 -8907.810220     0.970868 
Loop time of 2.71922e-06 on 27 procs for 0 steps with 5200 atoms

group widom_test         delete
group noneq_run          delete
group noneq_run_rigid    delete
reset_timestep 10400

group   solvent delete
group   water   delete
group   ions    delete
group   wall    delete
group   flying  delete
group   eq_run  delete
        

group   solvent type 1
5000 atoms in group solvent
group   water   empty
0 atoms in group water
group   ions    type 2 3
200 atoms in group ions
group   wall    type 4 5
0 atoms in group wall
group   flying  type 6 7 8
0 atoms in group flying
group   eq_run  union solvent ions flying
5200 atoms in group eq_run
            
######################################################################
pair_style   lj/cut/coul/long 2.500000 3.500000
kspace_style pppm 0.0001

# LJ (neq? False)
# real lj particles
pair_coeff  * *         1.  1.  2.5   # solvent + ions
pair_coeff  4*5 4*5     0   0   2.5   # wall atoms

        
pair_modify  tail no shift yes mix arithmetic # LB mixing rule
neigh_modify delay 2 every 1 check yes page 500000 one 50000
######################################################################
# shake is off; should be a dummy run
timestep 0.005000
thermo 2000
fix  eqmd   eq_run nvt temp 1.000000 1.000000 0.500000
run 0 # (neq? False) MD run
PPPM initialization ...
  using 12-bit tables for long-range coulomb (../kspace.cpp:340)
  G vector (1/distance) = 0.80650466
  grid = 36 36 36
  stencil order = 5
  estimated absolute RMS force accuracy = 8.1661187e-05
  estimated relative force accuracy = 8.1661187e-05
  using single precision KISS FFT
  3d grid and FFT values/proc = 4913 2592
Per MPI rank memory allocation (min/avg/max) = 5.425 | 5.447 | 5.489 Mbytes
Step Temp Atoms Density TotEng PotEng KinEng E_coul E_vdwl E_long Enthalpy Press 
   10400     1.007354     5200     0.751198 -15628.423140 -23484.274699  7855.851559   -68.583271 -23097.403133  -318.288295 -8907.810220     0.970868 
Loop time of 2.92656e-06 on 27 procs for 0 steps with 5200 atoms

124.0% CPU use with 27 MPI tasks x no OpenMP threads

MPI task timing breakdown:
Section |  min time  |  avg time  |  max time  |%varavg| %total
---------------------------------------------------------------
Pair    | 0          | 0          | 0          |   0.0 |  0.00
Kspace  | 0          | 0          | 0          |   0.0 |  0.00
Neigh   | 0          | 0          | 0          |   0.0 |  0.00
Comm    | 0          | 0          | 0          |   0.0 |  0.00
Output  | 0          | 0          | 0          |   0.0 |  0.00
Modify  | 0          | 0          | 0          |   0.0 |  0.00
Other   |            | 2.927e-06  |            |       |100.00

Nlocal:        192.593 ave         208 max         182 min
Histogram: 2 3 3 4 5 6 2 0 1 1
Nghost:        1844.70 ave        1863 max        1823 min
Histogram: 3 4 0 0 2 3 6 1 3 5
Neighs:        16489.6 ave       18768 max       15221 min
Histogram: 4 2 4 6 7 1 2 0 0 1

Total # of neighbors = 445218
Ave neighs/atom = 85.618846
Neighbor list builds = 0
Dangerous builds = 0
unfix    eqmd
create_atoms  6 random  1  55643  NULL units box # not_read
Created 1 atoms
  using box units in orthogonal box = (-9.5291224 -9.5291224 -9.5291224) to (9.5291224 9.5291224 9.5291224)
  create_atoms CPU = 0.000 seconds
run 0 post no # temp=1.000000 unit_lj?=True velocity generated
WARNING: No fixes defined, atoms won't move (../verlet.cpp:55)
PPPM initialization ...
  using 12-bit tables for long-range coulomb (../kspace.cpp:340)
  G vector (1/distance) = 0.80650297
  grid = 36 36 36
  stencil order = 5
  estimated absolute RMS force accuracy = 8.1654387e-05
  estimated relative force accuracy = 8.1654387e-05
  using single precision KISS FFT
  3d grid and FFT values/proc = 4913 2592
Per MPI rank memory allocation (min/avg/max) = 5.425 | 5.447 | 5.489 Mbytes
Step Temp Atoms Density TotEng PotEng KinEng E_coul E_vdwl E_long Enthalpy Press 
   10400     1.007230     5201     0.751343 -14587.575757 -22443.969520  7856.393763   -68.583595 -22057.097954  -318.287970 -3527.077732     1.597813 
Loop time of 2.9693e-06 on 27 procs for 0 steps with 5201 atoms

# generated_velocity_lj 5201 lj_solvent vel 0.379533 -0.968044 0.057037
group   widom_test  type    6 # insert lj
1 atoms in group widom_test
set type 6 charge 0.000000
Setting atom values ...
  1 settings made for charge
run 0 post no # insert flying molecule
WARNING: No fixes defined, atoms won't move (../verlet.cpp:55)
PPPM initialization ...
  using 12-bit tables for long-range coulomb (../kspace.cpp:340)
  G vector (1/distance) = 0.80650297
  grid = 36 36 36
  stencil order = 5
  estimated absolute RMS force accuracy = 8.1654387e-05
  estimated relative force accuracy = 8.1654387e-05
  using single precision KISS FFT
  3d grid and FFT values/proc = 4913 2592
Per MPI rank memory allocation (min/avg/max) = 5.425 | 5.447 | 5.489 Mbytes
Step Temp Atoms Density TotEng PotEng KinEng E_coul E_vdwl E_long Enthalpy Press 
   10400     1.007230     5201     0.751343 -14587.575757 -22443.969520  7856.393763   -68.583595 -22057.097954  -318.287970 -3527.077732     1.597813 
Loop time of 2.98389e-06 on 27 procs for 0 steps with 5201 atoms

group noneq_run_rigid    intersect   all         water               # select_lj no selection
0 atoms in group noneq_run_rigid
group noneq_run          subtract    all         noneq_run_rigid     # select_lj no selection
5201 atoms in group noneq_run
run 0 post no # mom rev random number
WARNING: No fixes defined, atoms won't move (../verlet.cpp:55)
PPPM initialization ...
  using 12-bit tables for long-range coulomb (../kspace.cpp:340)
  G vector (1/distance) = 0.80650297
  grid = 36 36 36
  stencil order = 5
  estimated absolute RMS force accuracy = 8.1654387e-05
  estimated relative force accuracy = 8.1654387e-05
  using single precision KISS FFT
  3d grid and FFT values/proc = 4913 2592
Per MPI rank memory allocation (min/avg/max) = 5.425 | 5.447 | 5.489 Mbytes
Step Temp Atoms Density TotEng PotEng KinEng E_coul E_vdwl E_long Enthalpy Press 
   10400     1.007230     5201     0.751343 -14587.575757 -22443.969520  7856.393763   -68.583595 -22057.097954  -318.287970 -3527.077732     1.597813 
Loop time of 2.93722e-06 on 27 procs for 0 steps with 5201 atoms

######################################################################
pair_style   lj/cut/coul/long/neq 2.500000 3.500000 10400 100 1.000000 5 1 0 1.000000 1.000000 11 1.000000
kspace_style pppm 0.0001

# LJ (neq? True)
# real lj particles
pair_coeff  * *         1.  1.  2.5   # solvent + ions
pair_coeff  4*5 4*5     0   0   2.5   # wall atoms

        
pair_modify  tail no shift yes mix arithmetic # LB mixing rule
neigh_modify delay 2 every 1 check yes page 500000 one 50000
######################################################################
timestep 0.010000
fix  eqmd  noneq_run           nve                 # nve for non-rigid
run 100 # (neq? True) MD run
PPPM initialization ...
  using 12-bit tables for long-range coulomb (../kspace.cpp:340)
  G vector (1/distance) = 0.80650297
  grid = 36 36 36
  stencil order = 5
  estimated absolute RMS force accuracy = 8.1654387e-05
  estimated relative force accuracy = 8.1654387e-05
  using single precision KISS FFT
  3d grid and FFT values/proc = 4913 2592
Neighbor list info ...
  update every 1 steps, delay 2 steps, check yes
  max neighbors/atom: 50000, page size: 500000
  master list distance cutoff = 3.8
  ghost atom cutoff = 3.8
  binsize = 1.9, bins = 11 11 11
  1 neighbor lists, perpetual/occasional/extra = 1 0 0
  (1) pair lj/cut/coul/long/neq, perpetual
      attributes: half, newton on
      pair build: half/bin/atomonly/newton
      stencil: half/bin/3d
      bin: standard
Per MPI rank memory allocation (min/avg/max) = 5.425 | 5.447 | 5.489 Mbytes
Step Temp Atoms Density TotEng PotEng KinEng E_coul E_vdwl E_long Enthalpy Press 
   10400     1.007230     5201     0.751343 -15631.011960 -23487.405723  7856.393763   -68.583595 -23100.534157  -318.287970 -8913.656960     0.970397 
   10500     1.000949     5201     0.751343 -15624.004200 -23431.407953  7807.403753   -58.159237 -23062.814147  -310.434570 -8841.983584     0.979739 
Loop time of 0.308271 on 27 procs for 100 steps with 5201 atoms

Performance: 280273.274 tau/day, 324.390 timesteps/s
92.5% CPU use with 27 MPI tasks x no OpenMP threads

MPI task timing breakdown:
Section |  min time  |  avg time  |  max time  |%varavg| %total
---------------------------------------------------------------
Pair    | 0.056778   | 0.094884   | 0.1107     |   5.4 | 30.78
Kspace  | 0.15784    | 0.17488    | 0.21418    |   4.2 | 56.73
Neigh   | 0.014511   | 0.020826   | 0.023424   |   1.9 |  6.76
Comm    | 0.013758   | 0.015436   | 0.020249   |   1.7 |  5.01
Output  | 5.3636e-05 | 6.4888e-05 | 0.00020366 |   0.0 |  0.02
Modify  | 0.00034993 | 0.00052273 | 0.00068804 |   0.0 |  0.17
Other   |            | 0.001656   |            |       |  0.54

Nlocal:        192.630 ave         203 max         181 min
Histogram: 2 1 3 3 4 5 1 2 0 6
Nghost:        1840.67 ave        1868 max        1822 min
Histogram: 3 2 4 6 4 3 2 1 0 2
Neighs:        16500.7 ave       18076 max       14872 min
Histogram: 1 2 3 5 2 4 2 3 2 3

Total # of neighbors = 445519
Ave neighs/atom = 85.660258
Neighbor list builds = 25
Dangerous builds = 0
unfix    eqmd

group   solvent type 1
5000 atoms in group solvent
group   water   empty
0 atoms in group water
group   ions    type 2 3
200 atoms in group ions
group   wall    type 4 5
0 atoms in group wall
group   flying  type 6 7 8
1 atoms in group flying
group   eq_run  union solvent ions flying
5201 atoms in group eq_run
            
######################################################################
pair_style   lj/cut/coul/long 2.500000 3.500000
kspace_style pppm 0.0001

# LJ (neq? False)
# real lj particles
pair_coeff  * *         1.  1.  2.5   # solvent + ions
pair_coeff  4*5 4*5     0   0   2.5   # wall atoms

        
pair_modify  tail no shift yes mix arithmetic # LB mixing rule
neigh_modify delay 2 every 1 check yes page 500000 one 50000
######################################################################
run 0 post no # update forcefield; return to Eq
WARNING: No fixes defined, atoms won't move (../verlet.cpp:55)
PPPM initialization ...
  using 12-bit tables for long-range coulomb (../kspace.cpp:340)
  G vector (1/distance) = 0.80650297
  grid = 36 36 36
  stencil order = 5
  estimated absolute RMS force accuracy = 8.1654387e-05
  estimated relative force accuracy = 8.1654387e-05
  using single precision KISS FFT
  3d grid and FFT values/proc = 4913 2592
Neighbor list info ...
  update every 1 steps, delay 2 steps, check yes
  max neighbors/atom: 50000, page size: 500000
  master list distance cutoff = 3.8
  ghost atom cutoff = 3.8
  binsize = 1.9, bins = 11 11 11
  1 neighbor lists, perpetual/occasional/extra = 1 0 0
  (1) pair lj/cut/coul/long, perpetual
      attributes: half, newton on
      pair build: half/bin/atomonly/newton
      stencil: half/bin/3d
      bin: standard
Per MPI rank memory allocation (min/avg/max) = 5.425 | 5.447 | 5.489 Mbytes
Step Temp Atoms Density TotEng PotEng KinEng E_coul E_vdwl E_long Enthalpy Press 
   10500     1.000949     5201     0.751343 -15624.004200 -23431.407953  7807.403753   -58.159237 -23062.814147  -310.434570 -8841.983583     0.979739 
Loop time of 2.93041e-06 on 27 procs for 0 steps with 5201 atoms

# done post_propagate after NEMD
delete_atoms group widom_test compress no # lj bond yes mol yes # reject_insert
Deleted 1 atoms, new total = 5200
run 0 post no # delete trial-inserted flying molecule
WARNING: No fixes defined, atoms won't move (../verlet.cpp:55)
PPPM initialization ...
  using 12-bit tables for long-range coulomb (../kspace.cpp:340)
  G vector (1/distance) = 0.80650466
  grid = 36 36 36
  stencil order = 5
  estimated absolute RMS force accuracy = 8.1661187e-05
  estimated relative force accuracy = 8.1661187e-05
  using single precision KISS FFT
  3d grid and FFT values/proc = 4913 2592
Per MPI rank memory allocation (min/avg/max) = 5.425 | 5.447 | 5.489 Mbytes
Step Temp Atoms Density TotEng PotEng KinEng E_coul E_vdwl E_long Enthalpy Press 
   10500     1.001133     5200     0.751198 -15615.496669 -23422.836202  7807.339533   -58.158951 -23054.242396  -310.434855 -8833.594889     0.979722 
Loop time of 2.77593e-06 on 27 procs for 0 steps with 5200 atoms

run 0 post no # return_position back to old
WARNING: No fixes defined, atoms won't move (../verlet.cpp:55)
PPPM initialization ...
  using 12-bit tables for long-range coulomb (../kspace.cpp:340)
  G vector (1/distance) = 0.80650466
  grid = 36 36 36
  stencil order = 5
  estimated absolute RMS force accuracy = 8.1661187e-05
  estimated relative force accuracy = 8.1661187e-05
  using single precision KISS FFT
  3d grid and FFT values/proc = 4913 2592
Per MPI rank memory allocation (min/avg/max) = 5.425 | 5.447 | 5.489 Mbytes
Step Temp Atoms Density TotEng PotEng KinEng E_coul E_vdwl E_long Enthalpy Press 
   10500     1.007354     5200     0.751198 -15628.423140 -23484.274699  7855.851559   -68.583271 -23097.403133  -318.288295 -8907.810220     0.970868 
Loop time of 2.8633e-06 on 27 procs for 0 steps with 5200 atoms

group widom_test         delete
group noneq_run          delete
group noneq_run_rigid    delete
reset_timestep 10400

group   solvent delete
group   water   delete
group   ions    delete
group   wall    delete
group   flying  delete
group   eq_run  delete
        
write_data restart_after_MC_0.data pair ij
System init for write_data ...
PPPM initialization ...
  using 12-bit tables for long-range coulomb (../kspace.cpp:340)
  G vector (1/distance) = 0.80650466
  grid = 36 36 36
  stencil order = 5
  estimated absolute RMS force accuracy = 8.1661187e-05
  estimated relative force accuracy = 8.1661187e-05
  using single precision KISS FFT
  3d grid and FFT values/proc = 4913 2592
log logfile_hneqMDMC.1
