LAMMPS data file via write_data, version 28 Oct 2021, timestep = 10400

5200 atoms
8 atom types

-9.529122383550954 9.529122383550954 xlo xhi
-9.529122383550954 9.529122383550954 ylo yhi
-9.529122383550954 9.529122383550954 zlo zhi

Masses

1 1
2 1
3 1
4 1
5 1
6 1
7 1
8 1

PairIJ Coeffs # lj/cut/coul/long

1 1 1 1 2.5
1 2 1 1 2.5
1 3 1 1 2.5
1 4 1 1 2.5
1 5 1 1 2.5
1 6 1 1 2.5
1 7 1 1 2.5
1 8 1 1 2.5
2 2 1 1 2.5
2 3 1 1 2.5
2 4 1 1 2.5
2 5 1 1 2.5
2 6 1 1 2.5
2 7 1 1 2.5
2 8 1 1 2.5
3 3 1 1 2.5
3 4 1 1 2.5
3 5 1 1 2.5
3 6 1 1 2.5
3 7 1 1 2.5
3 8 1 1 2.5
4 4 0 0 2.5
4 5 0 0 2.5
4 6 1 1 2.5
4 7 1 1 2.5
4 8 1 1 2.5
5 5 0 0 2.5
5 6 1 1 2.5
5 7 1 1 2.5
5 8 1 1 2.5
6 6 1 1 2.5
6 7 1 1 2.5
6 8 1 1 2.5
7 7 1 1 2.5
7 8 1 1 2.5
8 8 1 1 2.5

Atoms # charge

3249 1 0 -8.160714060661496 -8.482931544783819 -8.96148460322419 1 2 8
1304 1 0 -8.19793252949318 -7.413143685515457 -9.135815464298965 1 4 -5
857 1 0 -7.639039753967606 -7.756305419246523 -8.07342631355878 5 3 4
3414 1 0 -8.57958977519292 -8.621349396771576 -8.020512942273754 -5 -7 -2
494 1 0 -7.612746172055249 -8.969602905425058 -8.070218312057456 -2 -5 0
2495 1 0 -9.34092828362409 -8.842786793784606 -9.466610941211243 1 0 5
2978 1 0 -9.167906546804952 -9.472312719785045 -7.836986357504333 8 7 1
5170 3 -1 -9.176799831328788 -7.91176497383197 -8.318740103976968 1 2 -6
1517 1 0 -7.057436394207514 -8.841904299206634 -9.037434519856918 -5 -1 0
4007 1 0 -5.811265405069361 -8.80261010162667 -8.051182871650944 -3 -2 3
3294 1 0 -6.5370845114597875 -7.988889801035801 -8.331320298845629 0 1 1
4696 1 0 -5.935149173965474 -9.041262796219335 -9.376437622180635 14 3 5
2161 1 0 -4.7977839773257625 -8.025080624068105 -7.6513376222788265 6 -9 -3
4483 1 0 -4.91966747742176 -8.36997787610487 -8.782905099095988 5 4 -1
1521 1 0 -4.474872672833479 -9.298117774437465 -8.214013926264219 -3 -4 -1
2392 1 0 -4.009514047955214 -8.005379862911767 -9.05724843562353 0 3 1
612 1 0 -3.582645658970904 -9.237697378817868 -8.99383684933012 0 -5 2
3617 1 0 -3.873336467986781 -7.518330911803375 -8.140875648608695 -5 2 -8
583 1 0 -4.755231848707705 -7.46118584074279 -9.529002408849921 -7 -2 -7
2927 1 0 -3.256309767135934 -8.40199823345232 -8.209378914220009 -8 -1 -1
4769 1 0 -7.6898987657946325 -6.6759712593493585 -7.957253560368615 3 -3 1
3166 1 0 -8.186087494680478 -5.699770800827265 -8.054455454114803 5 -5 4
771 1 0 -8.926940182458083 -6.843060329463372 -7.8353910590445235 1 4 7
4512 1 0 -9.204345156836805 -5.875418688682236 -8.091445865423292 0 -1 6
2245 1 0 -9.22218368407781 -6.259697995202373 -9.179222716657009 5 -3 -1
921 1 0 -8.27118169576664 -5.882510544849993 -9.26829234118429 2 8 -3
3577 1 0 -6.364427505289293 -6.234796353806388 -8.68522904308697 1 0 7
1754 1 0 -7.137377004715491 -6.9534310546150495 -9.006128458071906 -4 -3 3
939 1 0 -5.3552585972796924 -6.5768857944738635 -9.100618495956946 -3 5 8
356 1 0 -5.513052180793913 -7.388721614013756 -8.261542747715168 -1 -2 0
397 1 0 -5.425440378665107 -6.3468087134483095 -7.921567710661994 3 1 -2
587 1 0 -6.411896996424794 -6.9568796216004305 -8.001271599484411 -6 -4 -4
3445 1 0 -7.284261116822193 -5.315806892927991 -7.718972413663934 -4 3 -5
3626 1 0 -7.385268171020529 -5.92482395349298 -8.682176174203436 4 6 0
1466 1 0 -5.574074601528808 -5.636151865569991 -8.718537408841764 0 5 4
4056 1 0 -5.479206671800668 -5.397075252501278 -7.507406982812562 2 -1 0
2361 1 0 -6.202103964771153 -7.298193965973306 -9.216850150934853 4 4 -5
4003 1 0 -4.470860026558112 -6.817732379453103 -7.444864364636299 1 -5 4
2415 1 0 -4.25147528712369 -6.561740083093747 -8.552086199240765 0 -3 11
3890 1 0 -3.6721796954902186 -5.598354802113291 -8.524824084049596 0 -1 -2
4393 1 0 -4.158671465867465 -5.9250632681108915 -9.458434112515807 -3 -8 0
2746 1 0 -4.422926954493537 -5.854330327609723 -7.551913531791276 0 -6 -3
2635 1 0 -9.139478980738643 -4.855744934849304 -7.845033555562473 -9 -5 10
964 1 0 -9.047236537025665 -3.9307411989976053 -9.171090908071433 10 6 7
1901 1 0 -8.12849901361713 -4.612577049096682 -8.424572024149692 0 -4 -6
608 1 0 -8.872477294155358 -3.829417473577301 -8.083075054919384 4 5 -1
1429 1 0 -8.274973265114268 -3.2380080618607217 -8.938197269260108 -4 4 1
3061 1 0 -7.50379520703627 -3.7224097889943364 -7.660665236481453 -3 -2 -3
2438 1 0 -9.034342394855468 -4.99537811431144 -9.036136585257756 -8 0 5
3240 1 0 -7.872241769197201 -4.070884886970789 -9.340234030731175 1 2 0
3473 1 0 -6.941501260027627 -4.396508882157706 -8.52286683564804 9 3 5
3202 1 0 -6.112171010695166 -4.3089954954597856 -7.750012529738472 1 -6 -1
1667 1 0 -6.3806480675259 -5.212090377866936 -8.120015284881791 5 -3 -3
533 1 0 -6.104464137978523 -3.682048708158801 -8.761830439116347 4 2 5
1216 1 0 -5.432200039997539 -4.585616889742612 -8.705867582683974 -1 2 -1
3217 1 0 -3.793396788581867 -4.040246295394286 -8.078260319966184 1 1 -3
3927 1 0 -5.061484391595718 -3.846942421737834 -7.871912094749282 -2 1 2
2874 1 0 -4.384614390774977 -4.814648166839422 -7.958334614554118 -1 5 -1
816 1 0 -4.3385293100863676 -5.018429957394566 -8.943458561999305 3 5 4
836 1 0 -4.805911794015968 -3.535516735090353 -8.921770376478046 0 0 -3
372 1 0 -3.3583839778567794 -5.063711685344064 -7.50827792211422 -2 -2 1
2606 1 0 -3.272404675170649 -5.0403099461492396 -9.348755304947833 -4 -1 -3
2543 1 0 -3.8312174582192777 -3.865053353912037 -9.079257794052687 8 -6 2
4728 1 0 -9.391600907782083 -7.6814998764355 -7.31230992240603 5 -7 11
1764 1 0 -8.202432944257424 -7.640726173257541 -7.214743114340796 -1 -8 10
960 1 0 -8.035128320806242 -8.816483193013338 -7.030955604676895 -2 4 1
3419 1 0 -8.326445027936586 -7.893533630654196 -5.7336073157770056 -1 -4 4
4548 1 0 -8.917130357652892 -8.246500810490577 -6.537906898437246 -1 6 7
2455 1 0 -7.570121694447292 -7.977127821330727 -6.39311713376232 -3 6 1
2273 1 0 -7.701315549851981 -9.251564854765908 -5.594261495982855 -6 -5 2
5125 3 -1 -8.841999289361304 -9.227652509585514 -5.657660037153037 3 -1 5
4315 1 0 -9.492765930178974 -7.57651601701209 -5.862762164625199 2 -4 2
953 1 0 -7.064445059985001 -9.269656294599363 -6.754434796222906 1 0 -5
723 1 0 -6.8467960815658016 -8.317178103497964 -7.337571828765184 -3 -5 3
2485 1 0 -5.901407503014506 -7.928672840555925 -7.146241074117303 -8 -3 6
606 1 0 -6.642444156935444 -8.681662927057484 -5.892372193162154 -3 -5 10
4440 1 0 -5.725506917998245 -9.233072246592293 -5.391520118460268 -6 -1 6
2727 1 0 -5.998224312339012 -9.176156358606892 -6.5584915852068 3 6 -6
922 1 0 -5.449768588652565 -7.9689181403380855 -6.276674625461277 -6 4 1
35 1 0 -5.813319395717588 -8.208294646694716 -5.351270909518532 2 2 3
2741 1 0 -6.6471228453196 -7.518847315275958 -5.431546837388508 10 2 -3
4610 1 0 -3.4805514607464767 -7.529025772212155 -7.18972060530471 -1 -2 4
3208 1 0 -5.250555649042012 -9.318311051351808 -7.241518318582979 -7 -7 0
2431 1 0 -4.273486965387054 -9.270855701145264 -6.936304315405804 2 0 -1
507 1 0 -3.5699385256240883 -9.201494946584106 -6.213109561322421 -6 8 5
4616 1 0 -3.634285641494117 -8.220332394750832 -6.318024196910849 6 3 5
986 1 0 -5.086343883457705 -9.228875147250022 -6.168432204080833 -3 7 1
581 1 0 -3.38489584519312 -8.493410258394588 -7.249264106540332 -2 -2 -5
2026 1 0 -4.443086311911722 -7.506181506994759 -6.5554078271474365 6 1 1
5014 2 1 -7.98849368905046 -6.0778001207843575 -7.147144651413236 7 -1 7
4125 1 0 -7.783424902927126 -7.026453486351087 -5.894505211226033 -1 -3 1
528 1 0 -8.599375332715116 -6.9732926969170945 -6.4571986587870995 3 4 7
3239 1 0 -7.849667772355562 -5.718955224395895 -6.175906664805645 -2 1 4
4848 1 0 -7.4706496443730135 -7.03600989450465 -6.919367621322895 -4 0 -1
796 1 0 -8.853110838319425 -6.010199529207126 -5.956572738021064 -1 2 7
1483 1 0 -6.221696406848983 -7.208582347441066 -6.367817596446941 0 -6 1
4510 1 0 -6.84379972053694 -6.139327731333929 -7.132832830606267 4 -7 2
4091 1 0 -5.412573159528881 -7.13973644066646 -7.0875041692639345 8 7 -5
574 1 0 -6.114134390696594 -5.741549200345363 -5.822070751580547 -1 -3 -4
2181 1 0 -6.772995157625647 -6.455401972455366 -6.0690868537742455 -4 2 -1
4110 1 0 -5.827124118727739 -6.116680829417767 -6.785071494409667 -3 -1 -7
3777 1 0 -7.0670036589402265 -5.578923819394325 -5.346240569272444 -1 8 3
1220 1 0 -5.87550366960824 -6.768608968874167 -5.376735879823637 2 0 -3
929 1 0 -5.178158737614667 -6.822451789990383 -6.09464137604927 0 12 -3
3444 1 0 -3.1822519885639924 -7.057022783258477 -6.2821766097422 -4 2 2
1192 1 0 -4.997230559899926 -5.308963838891031 -6.606785318055668 3 1 -4
4684 1 0 -4.241859017816688 -6.27462261595325 -6.3693476620516405 -3 2 2
4287 1 0 -3.4901228261330854 -6.271119659187291 -7.092018263970964 5 -4 2
1623 1 0 -5.190476218969092 -5.417847819444339 -5.525068904794323 -5 0 1
930 1 0 -3.731211275219141 -5.540897195058441 -5.5483232339875 -4 -1 -2
2163 1 0 -8.822693475419948 -5.187726307942026 -6.84036571336305 4 2 6
2515 1 0 -9.30153769966053 -4.072449519519303 -6.520115363600744 3 13 -1
5145 3 -1 -7.822088086520965 -4.664955248590275 -7.110159826436853 -2 -5 -3
4929 1 0 -7.754961714891011 -4.4836263747259 -5.9365578916791515 -5 7 0
2566 1 0 -8.912930930429626 -5.022706122456866 -5.7926688547395395 7 1 5
719 1 0 -9.015203420660626 -3.7545036557476528 -5.378548877678782 3 2 6
3585 1 0 -8.407845610210664 -3.754226071625103 -7.014202501429863 -5 -2 9
4547 1 0 -5.697030891808691 -4.0954242944839025 -6.846325422780899 8 -4 -4
1550 1 0 -7.064380793963398 -3.7452903946133485 -5.992561446738451 0 -5 -3
1310 1 0 -6.828435833064399 -4.232814923707341 -6.9650204901180945 3 7 1
2611 1 0 -6.964794118809281 -5.210846312827394 -6.372507513836288 -2 -3 1
3702 1 0 -5.854207275788318 -4.813155194339664 -5.94477898502219 1 4 2
2979 1 0 -6.0785081861798815 -3.3541751280329257 -5.792708790979719 2 4 1
4200 1 0 -6.89994117917074 -3.207905394302177 -6.811853101889678 -2 -3 5
3300 1 0 -4.452740166965314 -4.7503611449503635 -5.777740617477108 -9 8 0
2626 1 0 -3.651310445561949 -5.054788936397081 -6.415313582446672 2 1 5
3758 1 0 -5.037654604319187 -3.653577482250304 -5.9702434116888785 2 -1 -2
725 1 0 -4.651942727850958 -4.398108795869161 -6.846799292411038 1 -1 4
1353 1 0 -3.5911931527384757 -3.8712275585770297 -5.881786830219663 4 3 3
2789 1 0 -3.765245843490836 -3.8657856746345023 -7.003837244017181 4 -1 -5
328 1 0 -7.559173429606169 -8.198830725529717 -5.1326208376894416 4 0 -5
2487 1 0 -8.358108739099235 -8.627708138042108 -4.55846935670571 5 -1 3
2760 1 0 -8.622593327148005 -8.157900018484817 -3.705115593096047 1 -3 -2
671 1 0 -7.941764509750996 -9.416284258633617 -3.846022721974292 -3 -10 -9
2648 1 0 -9.34621967546105 -8.504164332034065 -5.112286714985756 -3 -6 -6
4471 1 0 -8.090888459648875 -7.60578592331183 -4.489261039269042 8 2 -3
3910 1 0 -9.413899802975834 -7.548334639844297 -4.452454791446558 6 5 4
3048 1 0 -9.521868676396542 -9.44484555960776 -3.6327746532606904 8 -3 4
270 1 0 -5.91959413706571 -9.385385928325917 -4.291299767914718 -1 -6 2
4113 1 0 -6.6354906782393455 -8.538892814014053 -4.593122801494981 8 -1 1
3775 1 0 -7.115704003547148 -7.7021989354713725 -3.9465472991489063 4 6 -2
941 1 0 -6.935735152451751 -9.039290781025002 -3.796506029270041 -5 -4 2
4240 1 0 -5.787099334505906 -8.437939688057533 -4.00846171864727 8 -5 -5
4318 1 0 -4.604581416922665 -8.921334925779497 -3.9940284337238356 9 12 1
3178 1 0 -3.8608691390400005 -7.520078208584279 -3.676665043925543 9 0 -1
4988 1 0 -4.680691994326163 -8.247428796803106 -5.2597706044892565 1 -3 5
2285 1 0 -3.8492873059757318 -8.607543439240255 -4.692791638447931 3 4 4
5185 3 -1 -4.817545291050816 -7.947676605006417 -4.193729789590866 0 4 5
4898 1 0 -3.4024441392960587 -9.076569475469666 -3.6882145297862565 7 5 3
4955 1 0 -3.609427654510138 -7.599102936051611 -5.042408474155325 0 4 -6
2430 1 0 -8.625177149009414 -5.6516676303855355 -4.892311154106953 -1 -1 4
558 1 0 -9.233746461689798 -6.271657983527102 -3.254743728832668 3 9 2
152 1 0 -8.608855391377361 -6.370334437176862 -4.2153771273910525 11 2 0
3172 1 0 -8.968708195894198 -6.9432395350221086 -5.272208978928163 3 10 -5
4437 1 0 -7.769251675678455 -6.469745017537172 -4.993043040070706 6 -2 -3
3813 1 0 -7.778855234317561 -6.423746854843905 -3.2818053028065526 11 14 2
1339 1 0 -9.336590806311502 -5.561194130214138 -4.107079497691791 0 1 -1
1597 1 0 -7.939696038089657 -5.368566190334106 -4.2008443463568295 4 4 -4
2770 1 0 -6.693251919417772 -6.330976489162229 -4.8128196527329035 3 1 0
1977 1 0 -5.487757733848188 -7.299883393952082 -4.616960922399098 9 0 1
2964 1 0 -5.803207926370273 -5.747302745115537 -3.507359625076576 -4 -4 -3
4787 1 0 -6.759214626007716 -5.636737905557683 -3.8568830454893197 -4 -1 -1
4095 1 0 -5.407440227555742 -6.152096163242738 -4.580125302579372 2 -5 3
1917 1 0 -6.89962535092751 -6.667349832234452 -3.81978910657527 0 0 0
5026 2 1 -3.407885962765032 -5.890512546183127 -4.4068825350196486 0 -6 -2
5127 3 -1 -4.611195971827202 -7.06564996642189 -5.198637002948265 -4 5 3
5035 2 1 -5.244792803001918 -7.0534094095674815 -3.541168786480468 6 0 -3
4714 1 0 -4.332656307791512 -5.753364870292628 -4.819815660007281 9 1 -6
4903 1 0 -4.479950838019329 -6.656174271784467 -4.078751222706655 -4 1 3
527 1 0 -4.509882845604655 -5.778201026818887 -3.4323448171422264 -6 -4 -5
2518 1 0 -3.492597388889091 -6.204528694171071 -3.3925889185774696 6 -2 -6
1576 1 0 -9.414162078587538 -3.7791306371175146 -3.7740028787086115 -2 5 3
1041 1 0 -8.523114067916906 -3.3179933002551993 -4.497772468691816 -1 0 4
2029 1 0 -9.106441621328168 -4.624083369896833 -4.8371495020506785 -1 0 -4
4044 1 0 -8.38336770369675 -4.363061136368252 -4.235932758753712 -4 7 7
3303 1 0 -7.507633756762565 -4.699088918426331 -4.894514516680591 0 5 -4
1498 1 0 -7.646911617635105 -3.59366724280196 -4.884557670780327 9 -2 -2
2609 1 0 -7.561265625947972 -3.923413278747106 -3.7263976557781793 3 3 -6
2657 1 0 -8.46845279346711 -3.4143139390940687 -3.2765381446504978 2 3 -2
509 1 0 -5.350917914242666 -3.3354129970703124 -4.812524800482877 5 -12 -11
1552 1 0 -6.2866190608325345 -3.908377185042416 -4.945004178435469 5 7 10
3327 1 0 -6.5599459145594645 -3.3880975924585703 -3.4011183484001806 1 -8 13
566 1 0 -6.79954636053649 -4.394746547872494 -4.179842089635905 -4 0 -1
1734 1 0 -6.035112835221507 -4.893885639564419 -4.895945012724567 -7 2 5
600 1 0 -5.73092555233466 -4.057134332158138 -4.083471209719664 -6 5 -2
4472 1 0 -3.8502591299990163 -4.747424933939637 -4.9977945722015615 0 0 3
2805 1 0 -3.6729903754694164 -4.602161725842153 -3.815303856118514 -3 2 -1
4293 1 0 -5.207920427282689 -4.333352570357946 -5.205083671653196 -3 -5 4
4961 1 0 -4.047418429961574 -3.5783485317537562 -3.563693162706107 0 -6 0
66 1 0 -4.265244552748136 -3.453524270262621 -5.140241906044433 -6 -3 -1
4893 1 0 -4.99385318735606 -5.087265679578072 -4.23290018367838 7 -1 -6
1557 1 0 -4.790426427503991 -3.931820906177429 -4.288173071756126 -2 1 -1
3634 1 0 -5.146172025816304 -3.372623656846894 -3.368477050714663 -2 -3 6
2824 1 0 -4.911687152679856 -4.535161061843156 -3.2551483174892777 0 7 -4
1910 1 0 -7.709836162994842 -8.256736178639219 -1.6656688524090568 3 2 5
141 1 0 -8.714018161018092 -7.682264523077061 -2.027825548129 10 -9 9
4401 1 0 -8.542052379854855 -9.225158376369194 -1.3121375002050315 2 2 4
2920 1 0 -7.61380735293524 -9.504578046828966 -1.7472068224419095 6 1 -3
717 1 0 -7.854697060481844 -9.429893529098518 -2.767764995919373 4 -1 2
19 1 0 -9.21610079737723 -9.423585663514052 -2.505000289596954 -3 -2 3
859 1 0 -7.896531776383284 -8.169721307614727 -3.0120413109015063 -5 -1 -4
1871 1 0 -6.960429197452213 -8.591995754700962 -2.685402984770157 10 6 -8
4576 1 0 -5.650510835549157 -8.835785614919043 -2.043517858899345 1 1 -5
2141 1 0 -6.9194567400592 -8.691757575002546 -1.3397037309913586 -5 7 -4
2863 1 0 -6.91189351563449 -7.600810027581632 -2.0295953107028892 -4 1 -1
1566 1 0 -5.837285033585374 -8.084285398082658 -3.0415647303933873 2 1 -2
2111 1 0 -6.018571519513046 -9.009472391134697 -1.1104834321159256 2 7 0
4712 1 0 -5.706525660805481 -9.098328848389317 -3.0603837022247546 0 -2 0
2888 1 0 -5.0754808068142925 -8.727934945863229 -1.0590266293082147 4 1 4
4277 1 0 -4.76363518491982 -8.929177709104472 -2.7132729484955096 0 -2 3
1191 1 0 -5.285194915715907 -7.884652240590623 -2.1399463042647864 -2 2 1
3288 1 0 -4.224196244118815 -9.188448762967731 -1.35137503084789 2 -3 6
3682 1 0 -3.603191903374757 -8.319942529366461 -1.2798653655362282 -1 3 -4
2413 1 0 -4.662340182819957 -7.772391784885358 -1.2560234869292102 -4 5 0
3455 1 0 -3.8091384650303453 -8.471033985968917 -2.21903271697307 4 4 -1
253 1 0 -4.688805007375668 -7.93608171677492 -3.0633918558214646 0 10 8
3255 1 0 -8.75124533114483 -7.12033045112882 -3.174276764881899 -1 -1 3
3673 1 0 -8.453834933767128 -5.403615537978351 -1.8199991328283205 -7 -1 -2
1202 1 0 -8.7608915971014 -6.939914297612746 -1.1549370335920812 1 -1 1
4850 1 0 -8.855990397512798 -6.448730820654164 -2.2918159591569314 -5 4 9
4018 1 0 -9.232274600183155 -5.707574184620374 -1.2726533149391888 5 -1 -7
338 1 0 -7.929193633679906 -7.100921752449731 -2.424671218382444 -2 -10 -2
1706 1 0 -7.802167601782649 -6.165211794012744 -2.075893240227058 -3 1 -2
3640 1 0 -7.605116339016409 -5.653204013131918 -1.1984835442798267 -6 2 -4
1355 1 0 -7.891073151458707 -5.368157974994818 -2.879898191836604 1 3 -6
4139 1 0 -6.267766900618647 -6.678715862224674 -1.9482274813449874 0 -3 -2
1572 1 0 -6.90138150347132 -6.112998650236171 -2.4735693863456625 -1 -4 -2
4659 1 0 -7.21851349321707 -6.783340083986518 -1.573575959878816 3 -2 -4
1392 1 0 -6.365278733583615 -7.07736082800079 -2.9656564543346624 -2 6 -6
4394 1 0 -5.489763842634006 -7.138374911825874 -1.2521225962131939 1 3 -1
724 1 0 -6.633307422282338 -6.029356662472196 -1.1715600176549044 -8 1 5
750 1 0 -5.23583369046155 -6.822242803370477 -2.3957169607010536 -3 3 2
1402 1 0 -5.021590005816033 -5.849340763958705 -1.9112431351537758 11 10 -1
1542 1 0 -4.279894540046741 -6.3849719577198725 -2.492422371091583 0 -3 1
4519 1 0 -3.5509227788177387 -7.331177027432413 -2.552877404267174 5 -4 -2
3786 1 0 -4.562245759958692 -6.645818566226649 -1.3990419006372095 -3 -9 0
1502 1 0 -3.6932536724014446 -7.247186727118172 -1.215348972781256 0 2 -2
3484 1 0 -4.088941506673417 -5.826582991210708 -1.5189805439549702 -2 1 -1
2021 1 0 -3.1912358661659797 -6.131004622452449 -2.269854932290903 7 1 5
2031 1 0 -8.297268778378527 -4.504846286327135 -1.3657587688955442 1 3 3
3235 1 0 -8.444342786817515 -4.410736041472369 -2.517862859563753 -3 -1 8
1983 1 0 -7.998162364199253 -3.3992177688160234 -1.91674681267153 8 3 5
1434 1 0 -9.269053162354977 -5.1381819417016725 -2.2698884571435 -5 5 -2
3695 1 0 -8.789230954495395 -5.088538371790027 -3.1038825948452087 -2 1 3
2233 1 0 -9.140120137198455 -3.820157368498226 -1.8734083371135413 5 4 2
4932 1 0 -6.329411253472283 -5.105735804000776 -1.3961567199060465 -8 5 6
2816 1 0 -7.379666462331532 -3.3470574103294215 -2.6311435772880643 -4 0 -5
4536 1 0 -7.340065681906453 -5.117031715330921 -2.078397867257205 -2 -5 -2
1978 1 0 -7.074799058853932 -4.581583394551901 -3.139092682935342 3 2 -2
461 1 0 -7.045241804298165 -3.98819149482822 -1.8347067567847897 -1 1 4
536 1 0 -5.945123585141598 -4.0760641942459355 -1.897173252844015 -5 8 0
4706 1 0 -5.785357082805142 -5.048002960109528 -2.6882481739709516 6 10 2
4869 1 0 -5.817956016685057 -3.9818354143980157 -2.924641072727756 5 5 -1
3417 1 0 -3.314879759273941 -4.79305017306371 -2.8570530944024326 2 5 -3
2618 1 0 -3.3510869388335074 -3.8012488764018078 -2.6396151456714456 6 6 2
1166 1 0 -5.18382712124468 -4.837392447886585 -1.825895111362684 1 5 -5
3776 1 0 -4.300010636737217 -5.18667293888459 -2.5576005073805055 1 -3 -9
865 1 0 -4.986130890922974 -3.8485641400318205 -1.3763830372778867 -3 -2 -6
2210 1 0 -4.110950393415282 -4.264474040345021 -1.869177748139618 7 0 4
4991 1 0 -3.2629644368905617 -4.991817343090046 -1.8186538104277614 -10 5 -4
1504 1 0 -4.073139801344629 -3.1798453281522048 -2.082320879413767 -2 -2 1
4628 1 0 -4.810636237801704 -3.9000012018257477 -2.467107623647785 1 -4 5
3461 1 0 -8.63482745124775 -9.306331853837856 -0.19110534204976506 -1 0 -2
3329 1 0 -8.716928074154408 -8.08367852884952 -0.8865145084313062 4 -9 5
3218 1 0 -9.193998901573831 -9.126666589624216 0.7416659532518296 7 -10 1
4093 1 0 -7.570104804212479 -7.615780724449338 -0.8464664411643396 0 0 -3
2850 1 0 -8.24366202736743 -8.426868339852989 0.44180552247014065 -7 -4 5
2308 1 0 -9.15706281240256 -7.800949380618067 0.3874580866663505 3 -2 11
1075 1 0 -7.842715760747281 -8.71179840751243 -0.5702024699044759 1 9 -11
758 1 0 -7.340841017245657 -9.346127850013305 0.5014326060863658 -5 8 -1
3072 1 0 -6.227057683535543 -7.973833724462356 -1.0374454057724933 -4 10 4
2777 1 0 -6.925928539767015 -8.107438781211679 -0.2794674005438437 -2 9 -8
4785 1 0 -6.4100178658956395 -8.927695180400415 -0.0024243335693415026 5 -6 2
3315 1 0 -7.141476409537248 -8.342253416838012 0.7350089439799488 4 -3 -4
3740 1 0 -6.260917216194715 -7.430276407669861 0.3740577601678616 0 -4 0
2652 1 0 -5.714097651893305 -8.991483897192117 0.803193103083368 -3 0 4
2572 1 0 -5.567810258814526 -8.443088622329107 -0.20490135986804356 2 3 2
4713 1 0 -5.466663890316381 -7.917276778270134 0.7698983654409097 4 0 -8
1655 1 0 -3.7980596774850857 -9.365544176810408 0.30068671174493156 0 -5 1
1048 1 0 -4.661608246374948 -9.019689561675719 0.7748984898924006 -1 1 2
3442 1 0 -4.376018697651104 -8.671569208272809 -0.20397502110663848 -1 -8 2
4494 1 0 -3.757530432704147 -8.20456499978469 0.7508491147287659 0 -2 -2
4586 1 0 -4.706562300850096 -7.7013895965055985 -0.12254111793567572 5 5 4
1444 1 0 -8.60779791817853 -6.884880606606325 0.4600896306626709 8 -1 -1
2028 1 0 -8.970670013352548 -6.358047283654111 -0.3378737816825284 2 -1 -9
134 1 0 -7.440738992303038 -7.315485672066356 0.49511488102281026 -5 -5 -12
4925 1 0 -7.695059765810306 -6.492090706130127 -0.5071022430585999 6 -2 3
1107 1 0 -8.036362382904318 -6.010353771672242 0.3732843192958795 1 -4 -3
3614 1 0 -9.523870743976453 -5.470234060573701 -0.2981285410941247 2 -3 0
3267 1 0 -6.637259264078115 -6.985244189477458 -0.6401969885623515 2 2 1
4391 1 0 -6.395812985988055 -5.4532098351389555 -0.17893966578574824 4 5 -4
3989 1 0 -5.791724413829784 -6.68064489165128 -0.17837932711088506 -4 -1 2
2868 1 0 -6.934809631533628 -6.317040098420347 0.33752399404237876 -1 4 -4
1274 1 0 -5.41181316896378 -5.982579643015771 -0.9791362656496894 4 -3 -6
4625 1 0 -5.5428689870113095 -5.8114806814165725 0.578250297192764 -5 7 1
1758 1 0 -3.635444352343605 -7.3842360588435065 -0.08953162139100651 4 2 8
2068 1 0 -3.9100402350074273 -5.6587237766509135 0.806040809657417 2 1 -5
4687 1 0 -4.7183578551784935 -6.4904717179852245 0.009724053154817044 2 4 -2
2783 1 0 -4.235343491589336 -7.304836090759599 0.8211051463919511 3 7 5
4327 1 0 -3.2754902524088534 -6.514653659247629 0.6838782555733658 -1 0 -2
936 1 0 -3.315764870331545 -5.498806397608144 -0.14467866653773603 0 7 0
3688 1 0 -8.575574947420225 -5.2220403294085616 -0.7260376290431582 3 -3 0
3718 1 0 -9.4334420717986 -4.562848506601601 -0.8125212017438548 -4 1 -1
2231 1 0 -7.598718872816274 -5.101305772387009 -0.31593597689563924 -1 -1 -6
3852 1 0 -8.558016740215285 -4.041832948146045 -0.21354663207921332 2 9 -6
4306 1 0 -8.806196094468506 -3.5930751724468437 0.7501011340735478 3 0 -6
874 1 0 -8.814003386603817 -5.114499240611027 0.5278976088879914 -1 -1 -5
844 1 0 -8.162197460771367 -4.430637610326649 0.8099749971211041 1 0 -3
4852 1 0 -7.710528819395638 -3.3574584262912963 -0.9803356971298897 -3 2 3
1937 1 0 -7.8761498367635365 -3.2694827592161246 0.3854142526183279 -4 -1 5
3961 1 0 -6.895605154943549 -4.867405803358352 0.5478050812043418 2 -2 -11
2959 1 0 -5.887215469277347 -4.170542116475669 -0.7370916542148493 2 2 -9
433 1 0 -5.945416571312736 -4.6485105223370775 0.3800276285584199 -2 -3 -6
4603 1 0 -6.932523010958957 -4.328023424371843 -0.7769581049518746 3 -2 1
3638 1 0 -6.915208171388985 -3.7992457021829105 0.19828761242612208 3 4 -1
344 1 0 -5.566620430904049 -3.6291677988912214 0.5491277170553553 0 0 1
1496 1 0 -5.259586391326713 -5.114579589917733 -0.45499605082240396 0 3 3
1694 1 0 -3.3070944160518296 -4.368221156686154 -0.9026257391850907 -7 6 2
4571 1 0 -4.900654163166527 -4.0333190944288 -0.16657812309921344 -5 9 6
1374 1 0 -3.8497307413053172 -3.4907468038265588 -1.0020608848793429 2 6 -2
1379 1 0 -4.279714210820913 -4.872902597172332 -0.1961310676411116 1 6 -3
4598 1 0 -5.0180761606974595 -4.915544275991627 0.7137009723241124 -4 3 -5
1722 1 0 -3.891223758806917 -4.555484719170062 0.8559419931105307 5 -4 -1
137 1 0 -3.6943115201998684 -3.6321653826654163 0.12339721017037394 -7 4 -7
3677 1 0 -9.495133650469274 -7.562994388698947 1.4817457615150305 6 -6 8
4817 1 0 -8.189973399983954 -9.399407977668043 1.0830324949277625 -8 -2 8
899 1 0 -8.319076635893252 -7.554720832778871 1.388465508002347 3 -4 -4
3187 1 0 -9.144321712893415 -8.35956496856961 2.793808399402451 2 0 4
3841 1 0 -8.666693395539836 -8.675522866516005 1.587324267749139 -6 0 -12
1783 1 0 -7.635539036799849 -8.581120514230049 1.6095601071375676 5 8 -3
2043 1 0 -7.464581227622943 -7.540026737381359 1.8068605790798353 -1 3 -1
1651 1 0 -7.5347035000934675 -8.12375836936115 2.7493112133511923 -4 -12 -1
3671 1 0 -8.460419226622516 -7.640795773584584 2.35843996167378 3 4 -9
388 1 0 -8.147016843005298 -9.043920026294481 2.483455343536975 -7 -3 -5
2371 1 0 -6.654776166599574 -8.998931001720878 1.2693004023087089 1 1 1
2730 1 0 -6.423884417337187 -7.819015891308628 1.307336294664492 -7 -3 -2
4481 1 0 -6.55723253427321 -7.7383823611856615 2.415153966751639 -1 -5 -1
897 1 0 -5.524931878278081 -8.317187993281811 1.6615762498602051 0 3 1
1450 1 0 -5.921840045654397 -9.490407190636207 2.188745676604435 1 4 -3
4416 1 0 -7.144672896740686 -9.168933541896815 2.4221843757438126 0 10 8
1469 1 0 -4.098090303346671 -8.735805226810056 1.8763309606116527 -2 2 -5
2349 1 0 -4.77195840444247 -8.486514496771965 2.686175129008618 -2 -2 -6
1073 1 0 -3.499632885357001 -7.902823890843111 2.53506087555704 -2 0 -10
4606 1 0 -4.527146789656258 -7.680748184666138 1.860063430891089 1 -4 2
4877 1 0 -4.088026804892308 -9.218465690647104 2.9206131195071214 2 7 -2
98 1 0 -9.228011800371064 -5.763487969728994 1.1903404992697835 -6 -3 -1
1511 1 0 -8.336788713586625 -5.825207122060996 1.5728980582474505 1 2 2
5039 2 1 -8.90423614211458 -6.641934212876376 1.6385336141773696 4 -4 3
1913 1 0 -7.841826159896711 -6.638571508370231 1.2730580979448538 -4 7 -5
3018 1 0 -8.480505698724514 -6.612975877816737 2.5646330803547666 0 4 -3
526 1 0 -7.930492559117518 -5.391395535300491 2.5317352918743454 4 5 0
3188 1 0 -5.399095402767239 -7.272776982881579 2.5361775647309748 2 -1 4
2705 1 0 -7.218154657512962 -5.844261616469893 1.7187196952499628 0 5 -1
1061 1 0 -6.914140433948948 -6.783488114819398 1.4227812103241397 5 -7 1
576 1 0 -6.020277091609805 -6.493592910525035 2.255764089067592 -6 4 6
780 1 0 -6.982967891029683 -6.801790166660842 2.4134387780999824 1 2 -4
3986 1 0 -6.199968313188024 -5.629194824746007 1.5931053737112362 -3 -8 3
4575 1 0 -6.956370892015487 -5.541744303521419 2.7509693888626754 -2 0 -1
3282 1 0 -5.6141576627922305 -6.84371292019413 1.194208684177526 6 -2 -8
1234 1 0 -3.3906817731944554 -7.319853002681653 1.5817004007773654 -2 1 -4
2695 1 0 -5.115425210801621 -6.000993811668747 2.4418287930269216 5 -5 1
2955 1 0 -3.6137939518669278 -5.359798948384032 1.8284692657269066 -3 4 -5
853 1 0 -3.911550519032236 -6.307512449686484 1.6245782378465587 0 -6 -5
1173 1 0 -4.917624332403197 -6.1383109772411295 1.3437202502342516 -13 -5 3
569 1 0 -4.112604633217053 -6.808010881523354 2.5154855905684066 -8 1 0
2249 1 0 -3.4585265020836498 -5.6305115071016525 2.8989711488441676 -1 2 1
5140 3 -1 -9.359468566005308 -5.1667122324748265 2.131252554674263 -6 -3 4
3827 1 0 -8.324391095016011 -4.313888723128327 2.0178011976505448 7 -5 -2
4452 1 0 -8.168342220483643 -3.2199762861712036 1.7144469001209883 -2 1 -4
1701 1 0 -9.141047865024595 -4.112250930789584 2.9403409663209144 -5 -1 0
965 1 0 -9.522557828091358 -4.481316639845269 1.4404250608208329 -1 -4 -4
3733 1 0 -7.600517379172237 -4.9970956872763415 1.368560378451021 3 2 -10
5018 2 1 -8.773408067023727 -5.01551208087378 3.0956179558171537 2 3 -4
3820 1 0 -6.356292394187255 -3.268768771106627 1.2474350384707622 1 0 -1
3919 1 0 -7.13396337140113 -3.98664077614411 1.291578503131643 6 2 -5
1152 1 0 -5.917159981705875 -5.050034481409671 2.527597412651346 2 5 5
1302 1 0 -6.337549758108296 -3.6493641151202065 2.262925258679703 1 -2 -2
2720 1 0 -6.013248228090507 -4.344228143688629 1.3489590134862308 -1 1 4
1993 1 0 -6.693554652949738 -4.845954496088606 1.8815858950769124 2 -1 7
3848 1 0 -7.147026854900983 -3.2611071274064796 2.162234867305256 3 6 4
4816 1 0 -7.27493405924433 -4.2497410832902816 2.436782738087289 6 6 3
4721 1 0 -5.42731337084428 -4.029812504245034 2.95360295395451 8 0 -4
4743 1 0 -5.037526591823114 -4.714258424375905 1.8287793729865993 -2 4 -5
4351 1 0 -4.700787810140601 -3.950499380734894 1.3234822535662025 9 7 -2
3612 1 0 -4.507637979754275 -4.6150293338424015 3.094128032661145 -3 1 1
4538 1 0 -3.750286952334383 -4.090571397200321 1.8005447399969512 2 8 -6
4679 1 0 -4.533753463639509 -3.7183833116025213 2.3541428259412562 5 8 -6
3472 1 0 -3.704438049975805 -3.989482063062925 2.9411750996891075 1 2 -1
1751 1 0 -8.358496809575527 -8.112563880267581 3.5631655499309587 1 2 -2
2267 1 0 -9.10654473588614 -8.967578731910404 3.74927807196483 -8 0 -1
3193 1 0 -8.61622454901916 -7.440610508346656 4.351712108714418 1 1 -1
3913 1 0 -8.797056964514663 -8.520691064562856 4.662713181337614 -2 8 -3
3477 1 0 -7.543449347445895 -8.058166307273003 4.839048773799927 -3 1 -5
1219 1 0 -7.889306970325407 -9.282798113766043 4.166817811987081 4 -3 3
1671 1 0 -9.328109261136316 -7.566120151276653 5.122454005775713 3 1 3
1155 1 0 -6.209828461192811 -7.978239458051082 4.378270081469229 -2 -4 1
2296 1 0 -6.640263205853534 -8.955419304045954 5.251498477621589 -6 1 3
1583 1 0 -7.1140068592309955 -8.53444363862276 4.007994964926964 3 3 4