
#===========================================================
# GENERAL PROCEDURES
#===========================================================
units		lj	    # g/mol, angstroms, fs, kcal/mol, K, atm, charge*angstrom
dimension	3	    # 3 dimensional simulation
#newton		off	    # use Newton's 3rd law
boundary	p p p	# perodic boundary conditions
atom_style  charge  # molecular + charge
# this is ESSENTIAL for lj system
atom_modify map array

#===========================================================
# Back to full Long-range Coulomb
#===========================================================
pair_style     lj/cut/coul/long 2.5 3.5
pair_modify    shift yes tail no mix arithmetic # L-B mixing rule
kspace_style   pppm 0.0001

#===========================================================
# read restart
#===========================================================
#read_restart _spm_lj.restart.8400000
read_data   _restart_end_run.data #_spm_lj.end.data
Reading data file ...
  orthogonal box = (-9.5291224 -9.5291224 -9.5291224) to (9.5291224 9.5291224 9.5291224)
  3 by 3 by 3 MPI processor grid
  reading atoms ...
  5200 atoms
  reading velocities ...
  5200 velocities
  read_data CPU = 0.036 seconds

# LJ interation epsilon sigma cutoff
pair_coeff *    *   1.0 1.0
pair_coeff 4*5  4*5 0   0

#===========================================================
# Set charges/Create groups
#===========================================================
# set charge for ions
set type 1 charge  0.0      # solvent
Setting atom values ...
  5000 settings made for charge
set type 2 charge  1.0      # cation
Setting atom values ...
  100 settings made for charge
set type 3 charge -1.0      # anion
Setting atom values ...
  100 settings made for charge

# groups
group solvent   type 1
5000 atoms in group solvent
group ions      type 2 3
200 atoms in group ions
group moving    union solvent ions
5200 atoms in group moving

# define mass
mass	* 1.0

## molarity
#variable    avogadro        equal   6.022
#variable    ions_density    equal   count(ions)/vol
##variable    ions_molarity   equal   ${ions_density}/${avogadro}*10000.0

#===========================================================
# SET OUTPUTS
#===========================================================
thermo_style    custom step temp atoms  density etotal pe ke ecoul evdwl elong enthalpy press
thermo_modify   norm no format float %12.6f
thermo ${thermo_freq}
thermo 4000

#===========================================================
# SET RUN PARAMETERS
#===========================================================
variable        timestep        equal   0.005
timestep        ${timestep}         # fs
timestep        0.005         
run_style       verlet              # Velocity-Verlet integrator

variable        damp_temp       equal   ${timestep}*100.0
variable        damp_temp       equal   0.005*100.0
variable        damp_prss       equal   ${timestep}*1000.0
variable        damp_prss       equal   0.005*1000.0
##===========================================================
## DUMP TRAJECTORY
##===========================================================
#dump            prod all custom ${coords_freq} ${filename}.lammpstrj id type xu yu zu
##dump_modify     prod scale no
#dump_modify     prod sort  id

##===========================================================
## minimization
##===========================================================
##neighbor 0.5 bin
#neigh_modify delay 10 every 1 check yes page 500000 one 50000

reset_timestep 0

#fix mom2	moving   	momentum 100000 linear 1 1 1
#restart ${restart_freq} ${filename}.restart.*
#
#unfix   mom2
#===========================================================

group   solvent type 1
5000 atoms in group solvent
group   water   empty
0 atoms in group water
group   ions    type 2 3
200 atoms in group ions
group   wall    type 4 5
0 atoms in group wall
group   flying  type 6 7 8
0 atoms in group flying
group   eq_run  union solvent ions flying
5200 atoms in group eq_run
            
######################################################################
pair_style   lj/cut/coul/long 2.500000 3.500000
kspace_style pppm 0.0001

# LJ (neq? False)
# real lj particles
pair_coeff  * *         1.  1.  2.5   # solvent + ions
pair_coeff  4*5 4*5     0   0   2.5   # wall atoms

        
pair_modify  tail no shift yes mix arithmetic # LB mixing rule
neigh_modify delay 10 every 1 check yes page 500000 one 50000
######################################################################
timestep 0.005000
thermo 4000
fix  eqmd   eq_run nvt temp 1.000000 1.000000 0.500000
run 10000 # (neq? False) MD run
PPPM initialization ...
  using 12-bit tables for long-range coulomb (../kspace.cpp:340)
  G vector (1/distance) = 0.80650466
  grid = 36 36 36
  stencil order = 5
  estimated absolute RMS force accuracy = 8.1661187e-05
  estimated relative force accuracy = 8.1661187e-05
  using single precision KISS FFT
  3d grid and FFT values/proc = 4913 2592
Neighbor list info ...
  update every 1 steps, delay 10 steps, check yes
  max neighbors/atom: 50000, page size: 500000
  master list distance cutoff = 3.8
  ghost atom cutoff = 3.8
  binsize = 1.9, bins = 11 11 11
  1 neighbor lists, perpetual/occasional/extra = 1 0 0
  (1) pair lj/cut/coul/long, perpetual
      attributes: half, newton on
      pair build: half/bin/atomonly/newton
      stencil: half/bin/3d
      bin: standard
Per MPI rank memory allocation (min/avg/max) = 5.425 | 5.447 | 5.489 Mbytes
Step Temp Atoms Density TotEng PotEng KinEng E_coul E_vdwl E_long Enthalpy Press 
       0     1.006482     5200     0.751198 -15416.330814 -23265.378059  7849.047245   -15.021542 -23056.428927  -193.927591 -8367.936592     1.018220 
    4000     1.004700     5200     0.751198 -15633.651038 -23468.806987  7835.155950   -52.241192 -23135.344624  -281.221171 -9056.532339     0.950139 
    8000     0.983790     5200     0.751198 -15798.374500 -23470.460030  7672.085531   -61.690527 -23096.512420  -312.257084 -9115.122592     0.965471 
   10000     0.993636     5200     0.751198 -15785.451810 -23534.325351  7748.873540   -64.716208 -23164.556143  -305.052999 -9829.055240     0.860468 
Loop time of 28.9912 on 27 procs for 10000 steps with 5200 atoms

Performance: 149010.721 tau/day, 344.932 timesteps/s
92.6% CPU use with 27 MPI tasks x no OpenMP threads

MPI task timing breakdown:
Section |  min time  |  avg time  |  max time  |%varavg| %total
---------------------------------------------------------------
Pair    | 5.8863     | 9.3735     | 10.749     |  52.5 | 32.33
Kspace  | 15.76      | 17.172     | 20.438     |  36.3 | 59.23
Neigh   | 0.61413    | 0.87279    | 1.0295     |  12.7 |  3.01
Comm    | 1.1618     | 1.3286     | 1.7949     |  18.3 |  4.58
Output  | 0.00016436 | 0.00018529 | 0.00062967 |   0.0 |  0.00
Modify  | 0.14288    | 0.18889    | 0.26011    |   7.2 |  0.65
Other   |            | 0.05497    |            |       |  0.19

Nlocal:        192.593 ave         202 max         183 min
Histogram: 3 2 2 3 2 4 3 4 2 2
Nghost:        1844.33 ave        1872 max        1818 min
Histogram: 3 1 4 3 3 2 5 3 1 2
Neighs:        16502.7 ave       17603 max       15147 min
Histogram: 1 2 3 3 3 2 3 4 3 3

Total # of neighbors = 445572
Ave neighs/atom = 85.686923
Neighbor list builds = 1000
Dangerous builds = 1000
unfix    eqmd
WARNING: lammps_gather_atoms: unknown property name (../library.cpp:2111)
# updating atom list by mol_id 0
# this is a pure atomic-system atom_id (0)
# done updating numbering after accepted exchange
log logfile_hneqMDMC.0
