LAMMPS data file via write_data, version 28 Oct 2021, timestep = 3000000

5214 atoms
8 atom types

-9.525278051358015 9.525278051358015 xlo xhi
-9.525278051358015 9.525278051358015 ylo yhi
-9.525278051358015 9.525278051358015 zlo zhi

Masses

1 1
2 1
3 1
4 1
5 1
6 1
7 1
8 1

PairIJ Coeffs # lj/cut/coul/long

1 1 1 1 2.5
1 2 1 1 2.5
1 3 1 1 2.5
1 4 1 1 2.5
1 5 1 1 2.5
1 6 0 0 2.5
1 7 0 0 2.5
1 8 0 0 2.5
2 2 1 1 2.5
2 3 1 1 2.5
2 4 1 1 2.5
2 5 1 1 2.5
2 6 0 0 2.5
2 7 0 0 2.5
2 8 0 0 2.5
3 3 1 1 2.5
3 4 1 1 2.5
3 5 1 1 2.5
3 6 0 0 2.5
3 7 0 0 2.5
3 8 0 0 2.5
4 4 0 0 2.5
4 5 0 0 2.5
4 6 0 0 2.5
4 7 0 0 2.5
4 8 0 0 2.5
5 5 0 0 2.5
5 6 0 0 2.5
5 7 0 0 2.5
5 8 0 0 2.5
6 6 0 0 2.5
6 7 0 0 2.5
6 8 0 0 2.5
7 7 0 0 2.5
7 8 0 0 2.5
8 8 0 0 2.5

Atoms # charge

4 1 0 -7.6377872787241206 -7.433622177820965 -9.151636892775505 -19 -21 -28
6 1 0 -8.079871168908257 -7.998265043952057 -8.406368774349334 3 -1 -3
7 1 0 -7.441488910519963 -8.612983674098086 -9.113130816367482 15 -13 -33
528 1 0 -8.008125532802302 -9.036680124836034 -8.2992716765203 3 -4 -2
524 1 0 -9.073265187482981 -8.899820061910905 -8.232252263760174 -27 -25 -16
2 1 0 -9.4715348312176 -7.963388468515755 -8.631189722989166 9 -7 -36
593 1 0 -8.04701593219154 -8.496976077613143 -7.452802850011258 4 -22 -41
3 1 0 -8.522071665610214 -8.540134571130823 -9.237926588383571 0 -1 -5
16 1 0 -5.899418473800451 -8.901993575806472 -7.965223154187366 7 -64 -70
14 1 0 -5.687794999378938 -8.490534868928481 -9.09484613699964 17 -10 -30
599 1 0 -7.245636661258579 -9.409369423559335 -7.436924559422889 -3 -23 -49
5 1 0 -6.9631509043211945 -7.894756201225502 -8.503412666717104 0 3 1
11 1 0 -6.997195837478801 -9.338305757505701 -8.516472322953526 22 -11 -22
13 1 0 -6.457830799761529 -9.100679106890496 -9.34065428542962 2 -19 -34
21 1 0 -4.706061042754552 -7.479571552845873 -8.656234605164755 -19 -31 -35
4650 1 0 -3.913949744047302 -8.475542892357481 -8.791566950759687 13 -4 -14
611 1 0 -4.157021050720586 -8.291764921889515 -7.704463876281318 14 -1 -19
20 1 0 -3.4184836248917194 -9.400057402405652 -8.63319930924435 2 3 -1
24 1 0 -3.179582996382701 -7.847208697776698 -8.261964354573461 -1 -12 -45
18 1 0 -4.920685177150641 -8.365325544756542 -8.383217549967105 -17 -26 -26
4718 1 0 -3.6565896747777553 -7.5953242088073365 -9.51350884322344 11 -57 -68
1 1 0 -8.429124148481293 -7.079176403041454 -8.369992540339094 12 -30 -26
76 1 0 -7.668342046611654 -6.187477635445266 -8.589588308116157 -109 -46 -63
654 1 0 -9.380323939002952 -5.500173130112536 -7.61686778296022 8 -27 -47
597 1 0 -7.923493460300049 -6.998489163604219 -7.54059952753948 10 -9 -9
73 1 0 -8.709033102810048 -6.070675012999586 -8.881003601928617 -14 -18 -37
713 1 0 -8.49430311467963 -6.171344022045257 -7.83495012494986 8 -2 -10
4755 1 0 -9.443948267680312 -6.794518582602991 -8.804890403209209 7 -19 -27
80 1 0 -6.906387701389618 -6.838296040353005 -8.178507529202776 2 3 0
15 1 0 -5.742091348542389 -7.249503668530163 -8.03293691413313 10 -47 -49
87 1 0 -5.5672170148425115 -6.446925036838432 -8.590333148686025 -5 -29 -43
79 1 0 -6.955739119034414 -6.695755603393091 -9.396829169919306 5 -1 -8
84 1 0 -6.316525371886092 -5.796288407931226 -9.235491122064678 3 7 -8
85 1 0 -6.459527062791283 -5.844914808721068 -7.779286532425066 -114 -88 -57
149 2 1 -5.41273066221664 -5.398777473963582 -7.785003971993049 1 2 -4
4708 1 0 -6.145589477808154 -7.243576395978082 -9.044957270508315 9 -1 -17
90 1 0 -4.035547157050043 -6.843634736104656 -8.013387964033493 7 -4 -9
89 1 0 -4.4986643904448345 -6.150430278689633 -8.555710309833318 5 0 -5
91 1 0 -3.504722583046996 -5.66811731564189 -8.012032422288726 6 -31 -32
94 1 0 -3.353538636280396 -6.75335574053372 -8.806150851571887 -69 -62 -41
4716 1 0 -4.464887001118339 -6.762813293042195 -9.496376635982557 -9 -27 -38
4780 1 0 -3.966394188224694 -5.313591585120019 -8.937713637928498 -20 -40 -37
134 1 0 -9.206885441264507 -4.78315807419693 -8.50191548204319 -7 -42 -47
75 1 0 -8.298638276647992 -5.148071945510719 -8.127669670888201 -10 -13 -21
138 1 0 -7.632182053616778 -4.220414661825465 -8.119979883009965 5 -4 -10
74 1 0 -8.77427134364336 -4.561489519823871 -7.414900679841808 18 -12 -30
140 1 0 -7.940476781125598 -3.4637238454512875 -8.999865595652595 5 -4 -7
4759 1 0 -8.937277248363534 -3.525430155875887 -9.404710731902075 14 -6 -14
136 1 0 -8.629713285541298 -3.688988657082675 -8.095817871608396 6 0 -17
4764 1 0 -8.075057384463559 -4.65989072314703 -8.995368073665032 -2 1 1
135 3 -1 -8.850233119238915 -5.159079422721773 -9.466217524494628 1 0 0
142 1 0 -6.73891602310284 -4.7615682355523345 -7.554229511236631 12 -8 -17
143 1 0 -6.586062234248011 -3.7384856799714505 -7.900977262997037 -19 -23 -38
86 1 0 -5.530193301553492 -5.0830115293267495 -8.831917334557739 -17 -23 -22
147 1 0 -5.561674857799662 -3.343951466880021 -7.4872012845105225 17 -8 -14
146 1 0 -6.095367361365047 -4.485086175709441 -8.37995712702883 -2 -29 -46
82 1 0 -6.90465474113021 -4.028370108527764 -9.22460095182577 17 -65 -71
145 1 0 -6.17215798546463 -3.262217609470142 -9.349910919280301 4 1 -5
4707 1 0 -7.191037088599611 -5.026780565040875 -9.508043152008591 -8 -17 -32
4776 1 0 -5.5611586741851875 -3.3182531809654745 -8.546363149365625 13 -13 -30
141 1 0 -6.980204003985071 -5.231341101608017 -8.585336030991753 11 -2 -9
150 1 0 -4.72293091229534 -4.138138500989208 -7.878750352506579 13 -16 -50
4782 1 0 -3.6497485464849535 -4.256298975378277 -9.04361247338417 15 -7 -20
152 1 0 -4.114443602210772 -3.349642966434693 -8.496263051126489 4 -2 -7
154 1 0 -3.48357766218435 -3.987799525217939 -7.75806643232784 -17 -36 -50
151 1 0 -4.679095884896834 -4.57925676192192 -8.924867592155476 1 -1 -6
156 1 0 -3.863854019598314 -3.247894534715735 -9.468021850135505 10 -8 -11
4781 1 0 -4.8154728824291375 -3.3821325665490782 -9.346899395929933 7 -21 -44
595 1 0 -8.226031045805005 -8.668655965579603 -6.351621884345705 -1 -2 -5
651 1 0 -9.069761475074717 -7.814739523370424 -7.398611255136715 16 -2 -23
590 1 0 -9.195164364201245 -8.723537486336527 -6.908239072566708 1 3 1
591 1 0 -8.23858665176754 -7.420440903486942 -6.624312342674767 9 -83 -69
1155 1 0 -9.329828018529378 -8.557807464178444 -5.882816502318563 16 -3 -21
1228 1 0 -8.79479967103056 -7.775240515508032 -5.406197943060178 -5 -28 -44
1101 1 0 -7.095457312284315 -9.513255899065175 -6.269245186047881 -8 -13 -39
9 1 0 -7.048192610815668 -8.179129709058937 -7.390075226073594 -14 -55 -59
607 1 0 -5.504023978702739 -8.0414253459138 -7.1722956452164395 -1 -8 -50
602 1 0 -7.214605343239722 -8.4845338992703 -6.416466358069901 11 2 -36
12 1 0 -6.228964719634133 -8.861375914590983 -6.941326117482858 11 -8 -13
604 1 0 -6.106507584208961 -7.479690541489281 -6.538796288078368 -16 -17 -35
1169 1 0 -5.641773392750363 -8.40005813859372 -6.043942458706276 5 -17 -33
600 1 0 -6.631641550976373 -8.792768304840214 -5.525801008515487 2 2 -1
19 1 0 -3.674157446388604 -9.381939300073906 -7.353051385515263 19 -10 -16
667 1 0 -4.893955897518583 -7.636727956536147 -6.261191759204432 -18 -19 -23
609 1 0 -5.053900858145685 -8.923356956399314 -6.633980874385522 -1 -17 -28
612 1 0 -4.01666036505813 -9.38813973356612 -5.539025311468606 16 -15 -26
613 1 0 -3.689404942294023 -7.711008981028954 -6.041245630162143 23 -10 -18
27 1 0 -3.2615460132705243 -8.413113404187806 -7.098409270337676 1 2 -6
614 1 0 -3.973633498390453 -8.900119605071838 -6.529103235700616 0 2 -2
78 1 0 -7.559245708474335 -6.047030226235229 -7.407346973969558 -105 -60 -22
712 1 0 -9.075830388784405 -6.411135801536861 -7.005169416934719 1 2 0
598 1 0 -7.732860509646392 -7.042322300349808 -5.309132206327957 11 -37 -36
77 1 0 -8.37780799768887 -5.601483559176608 -6.525731854864857 -19 -17 -32
653 1 0 -8.4854263998482 -6.585884981085227 -5.863633714973071 6 -4 -3
656 1 0 -8.96597533040138 -5.755470672262405 -5.384922833408838 1 -1 -6
658 1 0 -7.76693849138605 -5.958320498895674 -5.572517353652523 -88 -60 -40
592 1 0 -9.340655588552606 -7.1834297018796 -6.289765778033639 10 -27 -29
10 1 0 -6.668615222690157 -6.646380276500298 -7.071148023363301 23 -12 -31
83 1 0 -5.55191338796014 -6.497157718559859 -7.401513740971743 4 -32 -54
662 2 1 -5.991695619805278 -6.564303814003897 -6.28600947339243 9 -2 -14
603 1 0 -7.264784626175683 -7.356551738770555 -6.438997607636976 20 -58 -56
661 1 0 -6.8021697625964075 -5.969900466194392 -6.159183516826107 3 -14 -32
660 3 -1 -6.668964483438837 -6.982580690885799 -5.594933478791068 1 -1 -8
669 1 0 -5.877943573260556 -5.572224728118961 -6.834994001549839 -1 -8 -34
608 1 0 -5.62938806128813 -7.2661041169551845 -5.573434960405993 -6 -13 -44
1234 1 0 -6.079312942340058 -6.162404717275587 -5.336240054977544 -49 -78 -34
665 3 -1 -4.45436936337682 -6.030641632000319 -7.35267920112208 1 0 -2
153 1 0 -3.459749185146428 -6.317524110494425 -7.216291773605591 -8 -22 -35
666 1 0 -5.12961264302506 -6.254886346172054 -5.6498462899416255 23 -27 -47
1241 1 0 -4.642311850004521 -7.1290878866998995 -5.518165510319628 7 -1 -10
732 2 1 -4.304454202338083 -5.807049508496493 -6.3117147945691965 1 2 -4
670 1 0 -4.2096237410251796 -6.928862297616335 -6.566301975537256 -7 -26 -36
674 1 0 -3.66845992454969 -7.404984824881124 -7.243016716270969 -14 -36 -43
676 1 0 -3.2619010552622947 -6.417145275796948 -6.209950659331649 11 -69 -67
671 1 0 -3.876218364187283 -6.393241646740081 -5.448043506716855 3 -19 -35
771 1 0 -9.44286728126859 -4.038018514303326 -5.374265924055966 -21 -15 -38
717 1 0 -8.577891717580028 -3.5962342263134066 -6.874592402768005 22 -9 -26
81 1 0 -7.822680141990265 -4.97292639132573 -7.239187331339591 16 -38 -37
130 1 0 -9.356214700976345 -5.291629972628511 -6.671847618350325 14 -12 -22
1290 1 0 -8.196748006400043 -4.918180833497312 -5.444924879997119 -80 -35 -44
655 1 0 -8.387918000322845 -4.478274683499598 -6.444013801047925 -71 -84 -37
718 1 0 -7.570392045392032 -3.554305839829058 -6.934521301262545 0 -18 -30
719 1 0 -8.440010096578266 -3.6902955307821323 -5.712103073821688 -16 -26 -35
663 1 0 -5.838562499763234 -4.7288024265507795 -6.091070398926841 1 5 0
720 1 0 -7.125992687270379 -5.0547076731803795 -6.319009645752005 8 -6 -18
721 1 0 -6.5863826114762105 -4.059023327794103 -6.522143318706605 -18 -21 -28
723 1 0 -5.827176053325771 -4.5583116825588625 -7.14500056202735 -10 -9 -39
725 1 0 -5.962462030669116 -3.715496239876161 -5.41802824205353 -18 -50 -49
731 1 0 -4.3008027679582455 -3.816114890809733 -6.882793933238187 -7 -18 -36
736 1 0 -3.437537558339466 -4.168869610215807 -6.454399669154471 -21 -15 -45
724 1 0 -4.899257530306948 -4.000588443524269 -5.972263382653057 11 -26 -37
668 3 -1 -4.323258462875328 -4.781162733656512 -6.141053388336416 13 -12 -20
727 1 0 -4.61967654970412 -4.907477134990468 -7.190563420447193 10 -11 -32
157 1 0 -3.6819856135345708 -5.227898668784689 -6.918217851405358 27 -58 -62
1159 1 0 -7.941731100415757 -8.386883485438258 -5.264905876044862 13 -8 -32
1154 3 -1 -8.765216717621882 -9.237290160488353 -4.8548467569739575 2 4 0
1157 1 0 -8.591459584483815 -8.16637890915721 -4.511766381635393 -2 -13 -38
1163 1 0 -7.623415226469007 -7.759749310675185 -3.3747764818347386 -94 -105 -44
1158 1 0 -7.717464385309331 -8.665506489649793 -4.1415127682791315 0 4 -2
1792 1 0 -9.356802526930895 -8.358486406263172 -3.861132680951588 -4 -34 -35
1162 1 0 -7.171913578852357 -9.453514315289896 -4.530159412445315 10 -14 -35
657 1 0 -7.353536496239467 -7.5576751839926795 -4.532536005306859 6 -17 -28
601 1 0 -6.367124329530034 -7.871917162877804 -5.259937898663327 8 -21 -18
605 1 0 -5.845311387536488 -9.219426856103187 -4.571663906146821 -1 -20 -36
1235 1 0 -5.696811320418529 -7.6511781489148 -4.53085195043514 8 1 -7
1165 1 0 -5.567757614990928 -8.947110183878328 -3.6336544333897813 12 -20 -34
1164 1 0 -6.549307501025197 -7.63357439437064 -3.774962764434098 -121 -68 -16
1160 1 0 -6.941281504819521 -9.034221995864296 -3.4198767754950503 7 0 -5
1161 1 0 -6.546055367647858 -8.478468660928806 -4.420199490510883 0 2 -3
1174 1 0 -3.491418296237803 -8.37896816152377 -4.758596801276408 -12 -35 -43
1175 1 0 -3.7414862195350564 -8.054433705451546 -3.2538506086267756 0 0 0
1690 1 0 -4.449700235866797 -8.502119683318856 -4.237083836582196 6 2 -9
1172 1 0 -4.778873824880059 -8.340772303354758 -3.1948657347332876 -9 -38 -30
1173 1 0 -5.032196650526143 -8.364446800597173 -5.214625999664766 12 -50 -61
1168 1 0 -4.724676778021925 -7.42115018670774 -3.871119429105797 -3 -15 -40
1224 1 0 -9.306752555805117 -6.990321878490735 -5.019314964781764 2 1 -2
1922 1 0 -8.907750569497908 -6.26227549778063 -4.352575720530267 6 0 -10
1227 1 0 -8.145428862630014 -5.450569152184429 -4.613498725935056 18 -9 -18
1226 1 0 -8.34628070559612 -7.159104064382091 -4.238754396513253 6 -22 -30
1232 1 0 -7.609976419907326 -5.53159333529742 -3.647513681540904 0 0 0
1229 1 0 -7.123686578605324 -6.149825080745064 -4.860927113151651 1 1 0
1231 1 0 -7.332078515454541 -6.645382518768292 -3.8752275504258082 0 2 -1
664 1 0 -6.425688636571705 -6.8701553100598245 -4.4289951599583555 -4 -77 -56
1298 1 0 -6.1905170234863265 -5.963887085463905 -4.139629863912686 -5 -17 -30
1810 1 0 -5.663859838840979 -6.946894475652013 -3.604133510519476 -8 -33 -27
1238 1 0 -4.97926477023997 -5.630110358425584 -4.553069628856897 -13 -30 -35
1243 1 0 -3.7712109996970598 -5.308620919328704 -5.178280972626623 -78 -87 -25
1176 1 0 -3.7668292361875326 -7.325584721410557 -4.957092559049155 -1 -64 -61
1247 1 0 -3.2376136175651493 -5.641288648503415 -4.428316487186865 -3 1 0
1240 1 0 -4.660791735581364 -6.022634220255157 -3.465307116397621 -11 -37 -38
1239 1 0 -5.280411876481287 -6.66444098992314 -4.60215124890422 -19 -18 -35
1242 1 0 -4.026536967831723 -6.2033328299746495 -4.36413133187764 -12 -22 -36
1819 1 0 -3.9067828042628823 -6.951467611336067 -3.5157465998306097 16 -104 -66
1287 1 0 -9.468019194894358 -5.16245619829398 -4.554897530472583 20 -9 -20
1297 1 0 -7.76666170841569 -3.187947509008619 -4.446061887880577 18 -11 -24
1289 1 0 -9.133023204964545 -3.4215409554553347 -4.002311962588343 15 -5 -11
1357 1 0 -9.444418515317519 -4.422083799544862 -3.5780172287423864 -6 -15 -34
1299 1 0 -7.503804408517451 -4.376266701796603 -4.032453323094194 0 -8 -45
1294 2 1 -8.551724141993583 -4.525773978149714 -4.516870277037687 0 -27 -27
1864 1 0 -8.152208611879633 -3.707771194295554 -3.695565480177033 13 -28 -41
1291 1 0 -8.587846492372993 -5.247306952178324 -3.483603528229806 5 -5 -3
1303 1 0 -5.295747566047019 -5.182397544944176 -3.5593032449083517 15 -12 -20
1300 1 0 -6.281555185289113 -3.342519854321697 -4.244055480326435 0 2 -1
659 1 0 -6.728948901809161 -5.2645321954913005 -4.732789187838729 11 -18 -35
1302 1 0 -5.711830412667838 -4.927094068719729 -5.067233149135287 15 -9 -12
1236 1 0 -6.7625367530816085 -5.094567503539276 -3.3982009291691453 13 -15 -28
1368 1 0 -6.554013484991443 -3.868462915937266 -3.4282469402645144 0 -70 -65
1295 1 0 -7.162404786618918 -4.262069242281064 -5.109005186555491 14 -4 -16
1301 1 0 -5.531901970166803 -4.285364463714806 -4.207891511145037 -7 -9 -44
1306 1 0 -5.580702698541349 -3.3890480393844213 -3.455822163820404 3 0 -5
1308 1 0 -4.160213808678099 -5.1794313240253755 -3.597737255785121 4 -4 -13
1304 1 0 -4.622296916148739 -4.021352311943056 -3.920131219484709 -5 -18 -35
1310 1 0 -3.4043127697830693 -4.57968871946881 -4.034908016921327 12 -26 -34
1312 1 0 -3.3528435406362136 -4.3085532673877 -5.287125983852153 -24 -33 -47
1309 1 0 -4.088383830504801 -3.5826350004934064 -5.069913777981574 0 1 -1
730 1 0 -4.703222527268207 -4.659242908669685 -4.7530918023409905 1 -18 -39
1377 1 0 -3.561730622723027 -3.569818975752023 -3.9625139858534544 18 -9 -21
1305 1 0 -5.072466815882183 -3.6366809889735303 -4.892667965011973 11 -9 -16
1735 1 0 -7.910088843546709 -8.753622176227106 -2.6584761651078264 4 4 -2
1734 1 0 -8.410599992721691 -8.118855278604713 -1.8208534553496056 -126 -41 -32
1800 1 0 -8.596373906263269 -7.538478243455136 -2.9834593104752485 19 -87 -76
1793 1 0 -9.285253136951594 -7.858047575219436 -1.3668754249724602 15 -28 -27
2259 1 0 -8.321854633251046 -9.096517092872134 -1.5557853194333007 -40 -99 -57
1156 1 0 -8.8751450852589 -9.419647797144991 -3.1457444769523333 0 -35 -39
1736 1 0 -7.382227814456427 -8.432828985834254 -1.6874803357140031 -18 -18 -29
1738 1 0 -6.833698631554956 -7.759322250952905 -2.7119424642229415 2 2 -4
1743 1 0 -6.268060403558482 -8.781025145604326 -2.59740041955591 -2 -24 -39
2269 1 0 -6.292649244610171 -9.330135187894719 -1.6965459296711405 -9 -19 -26
1167 1 0 -5.771357247284508 -7.784348251158222 -3.074867220088521 -103 -82 -42
1811 1 0 -5.572509609080199 -7.78239012846307 -1.1446701394446 7 -19 -37
1741 1 0 -6.575518159834041 -7.671141918559741 -1.8432154104808904 16 -57 -33
2323 1 0 -7.362432093631752 -9.480783726495796 -1.4390987529040788 19 -9 -16
1751 1 0 -3.2060776116474505 -8.917228272456665 -1.3286808745746181 -1 -17 -34
1746 1 0 -5.212136650152402 -8.022726370789687 -2.1377848830869053 5 -31 -38
1815 1 0 -4.290628943106934 -7.666547165328501 -2.450698530419644 6 -5 -4
1747 1 0 -3.424811861173873 -8.22704640545548 -2.1203441886112353 -22 -18 -35
2340 1 0 -4.2325830772879725 -8.389285021965186 -1.429725832678297 -12 -24 -45
1742 1 0 -5.029421568390065 -9.317396405843752 -1.432921247027879 14 -10 -21
2278 1 0 -3.653854914455653 -9.368590758333909 -3.1712869999873354 16 -11 -16
2342 1 0 -4.651202223789004 -7.4528470883725495 -1.1216816644599195 18 -11 -16
2346 1 0 -4.168862834750524 -9.488692940454158 -2.0448702187233847 0 1 0
1171 1 0 -5.044828572049359 -9.251105986177597 -2.6952892811196953 16 1 -12
1804 1 0 -8.60556960823879 -6.207672041731275 -1.752397047266023 23 -10 -26
1739 1 0 -7.658117024698776 -7.372143231073038 -2.2395926966581046 8 0 -10
1233 1 0 -8.01875181075006 -6.647553275887276 -3.000085396033897 21 -13 -23
1799 1 0 -9.18932230736643 -7.019014231678613 -2.1320371835378054 7 -12 -24
1230 1 0 -9.029328065314024 -6.101722686180206 -2.8722619214934637 19 -13 -29
1740 1 0 -5.933446764855116 -7.091581992692177 -2.317663139207437 -10 -21 -24
1808 1 0 -6.466486089486109 -5.765027360517548 -2.050710428704528 -117 -73 -13
1809 1 0 -6.000773232807747 -6.666592192336311 -1.3838059898836141 4 3 0
1806 1 0 -7.3740352167533825 -5.298725917696187 -2.461453067185176 11 -8 -10
1812 1 0 -5.875884822131981 -5.605907372490022 -1.1554495529771462 12 -34 -29
1813 1 0 -5.4989046070292 -6.204485389728356 -2.747138653618061 2 -12 -28
1805 1 0 -7.0051867865364414 -6.474895535949363 -1.4677277717562525 -22 -34 -40
1237 1 0 -6.4193240591926415 -6.407719188577726 -3.022826326258641 -2 -9 -29
1816 1 0 -4.155705562527577 -6.047279407427058 -2.4847977562881414 0 1 -3
2347 1 0 -3.4823201087223996 -7.401779010507377 -1.4843672221577517 -120 -42 -56
1821 1 0 -3.830881731012579 -6.396067837344286 -1.4188049417631974 4 2 -4
1814 1 0 -4.787946077803457 -6.721270931988918 -1.8979152464654276 7 -6 -8
1744 1 0 -4.860142396778671 -6.990486679715345 -2.9440517833823274 0 2 -1
1820 1 0 -3.38350296536863 -6.964559337182117 -2.507734323033796 -118 -59 -25
1803 1 0 -8.094681134154238 -5.240760412805943 -1.3246909293707987 11 -79 -62
1862 1 0 -8.471081990607845 -5.288414534907385 -2.2828228735344376 -4 -24 -42
1861 1 0 -8.688205560092372 -4.080092025748493 -2.3356530126280193 -17 -18 -32
1865 1 0 -7.78062706975095 -3.3117460636766514 -1.5406280668539238 6 -4 -5
1866 1 0 -7.634534597294763 -4.399630987125605 -1.979112255002346 -70 -97 -39
1920 1 0 -9.51880537247186 -3.6435698575027695 -2.9535973524695467 1 1 0
1868 1 0 -7.471984738085936 -3.6073762043646482 -2.8731952795375792 13 -23 -33
1801 1 0 -8.689481098666455 -4.206244527633726 -1.3136530327620581 3 -3 -8
1796 1 0 -9.313094024344167 -5.127908468668416 -1.3137390163610596 10 -25 -29
1860 1 0 -8.923218946076414 -3.2694696183239604 -1.7782695747073054 -90 -76 -37
1296 1 0 -8.01541415526459 -4.566147322373772 -2.987443027131234 15 -29 -35
1807 1 0 -6.814604310551215 -4.777577851483865 -1.4131437641323854 -21 -23 -35
1874 1 0 -5.813827105424482 -5.019743831680352 -2.333559692726257 14 -7 -29
2470 1 0 -6.796345473139303 -3.7915753580837 -1.4760706632840932 -7 -39 -59
1871 1 0 -6.728767773623642 -4.280159256760234 -2.498896448448281 10 -4 -13
1870 1 0 -6.355465716298936 -3.276494438699018 -2.3909938842808467 19 -25 -34
1872 1 0 -5.811825740784093 -4.11308749238653 -1.818492610389592 22 -71 -60
1873 1 0 -5.469671155340798 -4.32903414336602 -2.9223422046299916 17 -9 -13
1307 1 0 -4.709490650527629 -3.5935087033938444 -2.94992811767209 -56 -108 -45
1877 1 0 -3.185054927238155 -4.4452263678638255 -2.8957565229264204 -21 -71 -49
1817 1 0 -4.739068549769362 -4.949367841362999 -2.634879151549736 20 -10 -38
1876 3 -1 -4.704688227799405 -4.157537463251109 -1.9486782986863622 1 4 -4
1881 1 0 -3.488906882355584 -3.8247062706255184 -2.17687567266374 7 -4 -14
1878 1 0 -3.7168613809648896 -5.127452465033191 -2.16978987471512 -9 -16 -36
2414 1 0 -4.248163491641429 -4.908191021945252 -1.311497991846223 4 -2 -6
2480 1 0 -3.89219464227925 -3.870963847933339 -1.126888385059387 10 -37 -31
3487 1 0 -8.694185672238104 -9.272268552464956 0.5661638130006375 15 -14 -37
1798 1 0 -7.5739717989611846 -7.482635390940494 -0.9557488392216884 1 1 0
2324 1 0 -8.602719524191853 -8.11421881953013 -0.49090921533722653 11 -91 -69
2460 1 0 -9.517442875111302 -7.73756992303412 -0.004401168940397324 17 -7 -10
2392 1 0 -8.913675998818798 -9.044883888245545 -0.6738405579246252 3 -5 -8
2325 1 0 -7.8375610084590255 -8.785188775198925 -0.5690874050213843 8 -5 -11
2327 1 0 -7.5518023363649815 -7.979013086120606 0.02887785269900978 1 4 0
2982 1 0 -9.378067502236378 -8.55046263761425 0.789542605763005 -13 -22 -45
2398 1 0 -8.552115407691396 -7.823480171033193 0.4791407319092117 -1 -36 -32
1737 1 0 -5.463506010301088 -8.82985289285979 -0.4211003788981209 4 -9 -40
2853 1 0 -6.859058626582042 -9.498818612809966 -0.28713890430461153 -5 -27 -35
2326 1 0 -6.454424296216769 -9.204063033236404 0.8383721346964248 -4 -17 -33
2331 1 0 -6.376059426537545 -8.673622923746713 -0.7340420049200241 -6 -37 -45
2336 1 0 -5.7872869093744175 -8.268232772223671 0.4521817908692304 -1 -63 -56
2339 1 0 -4.691616373301205 -8.252800814838967 0.6711017674079075 -2 -50 -25
2344 1 0 -4.502853743066479 -8.238648716726434 -0.3374679019773264 15 -9 -16
2345 1 0 -3.5276894787296933 -7.565397006649219 -0.29494195550020746 -7 -15 -38
2343 1 0 -3.5785055145960287 -8.238458200197856 0.6635840081713835 16 -19 -34
3442 1 0 -3.9826314479637435 -9.266496442375995 0.42821281603719585 5 0 -4
2405 1 0 -7.585028590001325 -6.9162751598199845 -0.001590858101384479 14 -4 -13
2328 1 0 -8.536431186361115 -6.88181486851901 -0.39814769733782585 -3 -28 -26
2401 1 0 -7.691296181087573 -6.2131620231420435 -0.7505306147290616 19 -82 -48
2395 1 0 -9.2497552965629 -6.172888135352972 -0.8822010645666345 10 -3 -8
2461 1 0 -8.503103874171172 -5.652501451788977 -0.3194394644476079 -3 -28 -53
3045 1 0 -9.468473754298586 -6.8703675206742005 0.6944625711637339 11 -9 -30
2915 1 0 -7.97606502499279 -7.083568806160284 0.946211985613736 -90 -70 -52
2397 1 0 -9.015528812374649 -6.08281077028239 0.4313297263842343 2 4 -4
2399 1 0 -8.153818995889287 -5.793378756183533 0.7006440946560805 -4 -91 -59
2330 1 0 -6.504586856046525 -7.3949372012756 -0.7934435114849103 8 -4 -10
2333 1 0 -6.274583547027727 -7.380372855031287 0.5966112441372994 15 -8 -31
2403 1 0 -7.204377281524695 -5.304246473287977 -0.4728269890322327 -11 -29 -37
2335 1 0 -5.624657551591628 -6.96801530468503 -0.5041612190014131 -2 -16 -40
2407 1 0 -6.678178473282423 -6.327252429693721 -0.4368443823291868 7 -1 -7
2922 1 0 -7.09724952561385 -6.6007380721102455 0.9017116836233672 15 -10 -39
2408 1 0 -5.829516949608715 -6.324516224953224 0.48829880204469256 0 -36 -54
2410 1 0 -4.6714638379977895 -7.314875552847822 0.057734837642449695 -1 2 -4
2416 1 0 -3.8535608321501136 -5.5402294576669915 -0.12771073176909753 9 -6 -10
2415 1 0 -4.098787809263819 -7.06836053712595 0.8927810237704847 -65 -90 -22
2404 1 0 -5.075962518064817 -7.265948997426076 0.9966093443820557 20 -16 -18
2350 1 0 -3.698801280893317 -6.621138610999205 0.06712794824594186 0 -4 -8
2997 1 0 -4.6995463709777425 -6.128144448666655 0.2894161628220018 -4 -62 -49
2412 1 0 -5.025141965953179 -6.099019061500016 -0.8271406427103773 15 -8 -29
2463 1 0 -9.378016494869353 -3.5742789113987437 -0.38918597786634346 0 -19 -45
1863 1 0 -8.830636961381542 -4.5830879611070205 -0.30061418238803833 15 -12 -28
1867 1 0 -7.722087593220016 -4.095782451957949 -0.7655388500545501 -9 -45 -30
2467 1 0 -7.7056324156141365 -4.769786907036557 0.45590683936346776 13 -9 -20
2462 1 0 -9.263665477728196 -4.3038776479063365 0.705742808806217 1 0 0
2464 1 0 -8.19704557767949 -4.01637320392673 1.013927441001719 -33 -97 -46
2466 1 0 -7.417608726533486 -3.7545232857647535 0.27568977407317585 -14 -23 -18
2527 1 0 -8.79678207712893 -3.234240815879469 0.40355001668897306 0 3 -3
2529 1 0 -8.542669092899585 -3.2146839451678177 -0.8089499667396548 1 1 0
2402 1 0 -6.352359575300023 -5.279016648167084 0.27437458766395434 -10 -18 -36
2472 1 0 -6.08745405531635 -4.069205568936877 0.30003471922389136 0 1 -2
2475 1 0 -5.599088311393388 -3.3215608184905845 -0.1022061350401481 -124 -38 -41
2473 1 0 -6.077710419301855 -4.783955576693238 -0.5793269173099931 3 4 1
2469 1 0 -6.8220978064873865 -4.200184044301325 -0.45730219605345307 9 -14 -39
2471 1 0 -6.516368224975666 -3.4156480002994978 0.911557239258818 0 2 0
2468 1 0 -6.81911758491182 -4.453429336188986 0.9552719990955674 -8 -31 -34
2409 1 0 -4.265286985975527 -5.02709093746998 0.7492423124685617 10 -9 -6
3063 1 0 -4.019295430882782 -3.7892001175631216 0.9054891136594373 15 -21 -42
2479 1 0 -3.9775266022996343 -4.375857329311713 -0.19581986717815697 14 -11 -16
2411 1 0 -5.20561962978775 -5.191358319297226 0.12369926490134406 -104 -56 -49
2483 1 0 -3.5059929520528095 -3.508020606044556 0.07838359535270469 2 1 1
2477 2 1 -5.048589521857557 -4.181040629391926 -0.8416799082326323 13 -7 -16
2476 1 0 -4.90458928806204 -4.267805483389876 0.37651309023012286 0 2 0
3486 1 0 -9.509089672032957 -8.787372010367099 2.0304434757003316 1 -1 -9
2921 1 0 -7.653868407480387 -8.365319306379195 2.361754035535599 4 1 -7
2917 1 0 -8.179843334924913 -7.79734616037635 3.029869405168045 -124 -48 -61
2919 1 0 -8.41205533686434 -8.70637199406842 1.519235070995489 7 -37 -37
2986 1 0 -8.936586351630194 -7.697914633756044 1.4516794437668268 16 -3 -24
2912 1 0 -9.28109903860259 -8.033644977545993 2.8652004358450758 17 -29 -41
3545 1 0 -8.501383915990239 -9.124505592234952 2.8580342283679627 19 -14 -26
2332 1 0 -7.3252525883725825 -8.800831437901422 1.372193530230095 2 -66 -64
2334 1 0 -6.69623209831332 -7.924930522702742 1.3703852649500592 11 -20 -33
2923 1 0 -5.58693547561511 -8.93533872753408 1.4082353908577951 -14 -17 -30
2924 1 0 -6.354697121794191 -8.650175596579102 2.275233747628287 -2 -35 -22
2926 1 0 -5.853341861929001 -7.705869822526981 1.721871927854342 8 -24 -26
2992 1 0 -6.685957257184532 -7.599452052928704 2.391106418112009 11 -95 -41
3428 1 0 -6.84453736050817 -9.249644047693526 3.0077550855106536 -3 -34 -30
2928 1 0 -5.733703571084576 -8.09497936734249 2.771275954695503 -1 3 -2
2937 1 0 -3.521610085816836 -7.608974155700469 2.8620684078666114 -7 -24 -43
2341 1 0 -4.20099840815676 -7.834098187054698 1.5156296997060303 19 -16 -25
2930 1 0 -4.0959609389408875 -8.914930155136751 1.5204698336046414 10 -2 -7
2929 1 0 -3.5599468359155235 -8.57228790988385 2.321610612298748 4 -23 -40
2932 1 0 -4.953643470259316 -8.524153369797034 2.118289829472307 -7 -29 -47
2934 1 0 -4.488995592661774 -7.656235127686748 2.463978243326149 -9 -24 -30
2985 1 0 -8.696426502255646 -6.472883434840966 1.3712270539904567 5 -18 -21
2920 1 0 -7.538583306177558 -7.2273736756952305 1.8687431119167404 26 -31 -31
2983 1 0 -9.204893662584894 -5.55657763006323 1.8276756407241004 -15 -18 -19
2988 1 0 -7.992437864587217 -5.971356666816991 2.138498923528425 -5 -74 -84
2914 1 0 -9.353008719778645 -6.9877183132042795 2.912487632871212 3 2 -1
2984 2 1 -7.805970228626421 -6.709249404423368 2.8309109144847127 12 -21 -40
2406 1 0 -6.089018535822557 -5.4537732150521085 1.4086315652269783 -92 -57 -32
3057 1 0 -7.16978040507791 -5.493494334958452 1.1946098189286638 11 -20 -33
3494 1 0 -6.612597894925872 -6.809402939132729 2.9872094917227203 16 -17 -42
2989 1 0 -7.00260438854763 -6.223917701953188 1.941063611505858 2 -17 -38
2991 1 0 -6.117003035247367 -6.74022303675426 1.4686751401715363 18 -56 -60
2994 1 0 -5.684708202571286 -5.977236217618603 2.7640375516330993 11 -28 -34
2996 1 0 -5.729078297217414 -6.962775034216497 2.4401795676345897 7 -24 -33
2990 1 0 -7.246864376928061 -5.516584919331966 2.8806229571271986 1 -1 -4
3001 1 0 -3.1805814257629543 -6.0749202298853096 3.0739088604666343 1 2 -1
2999 1 0 -3.6351913624347842 -6.778355222046524 2.255334437439891 13 -4 -15
2995 1 0 -4.674165912902994 -5.33491010170517 1.7058417436695243 1 0 -2
2993 1 0 -5.24297123457651 -6.134491794332509 1.3269372875351222 18 -9 -16
2998 1 0 -3.7983637434569983 -6.116516547277476 1.2093801918732576 23 -26 -29
3568 1 0 -4.74144850033295 -6.588164976066993 2.183708827607157 -80 -51 -13
3567 1 0 -4.981128221555313 -6.765804274181389 3.1728328734101945 -19 -20 -32
3002 1 0 -3.5701412594786737 -5.684678377612882 2.047188190441335 20 -23 -45
3571 1 0 -4.395700793693427 -5.861840020834453 3.0814490861764887 16 -28 -26
3049 1 0 -9.24326021111953 -3.5200574603352925 1.4831589992647174 16 -81 -61
3053 1 0 -7.924561455171849 -3.898372762968468 2.054394145284024 14 -14 -39
3051 1 0 -8.628062552780456 -3.339134145386857 2.4635660728519375 22 -11 -32
2400 1 0 -8.220876683753206 -5.127123368324463 1.4698754978475397 12 -22 -24
2987 1 0 -8.181666532444426 -4.969446180258115 2.6336393236793496 4 -4 -8
3050 1 0 -7.409373109160194 -3.2821597218418526 2.785595179155499 -8 -37 -31
3618 1 0 -9.285854279711588 -4.933442964824238 2.8222756506793383 1 5 0
3052 1 0 -8.958532920298437 -4.517590731076524 1.7966960361605595 8 -21 -40
3111 1 0 -9.492301626350676 -3.410010515187819 3.0047033706858604 -25 -112 -45