LAMMPS data file via write_data, version 28 Oct 2021, timestep = 2000

1518 atoms
11 atom types
1000 bonds
1 bond types
500 angles
1 angle types

-12.455288685663172 12.455288685663172 xlo xhi
-12.455288685663172 12.455288685663172 ylo yhi
-12.455288685663172 12.455288685663172 zlo zhi

Masses

1 15.9994
2 1.00794
3 22.989769
4 35.453
5 60
6 60
7 60
8 15.9994
9 1.00794
10 22.989769
11 35.453

PairIJ Coeffs # lj/cut/coul/long

1 1 0.155354 3.169 9
1 2 0 0 9
1 3 0.234061 2.66425 9
1 4 0.044567 3.99975 9
1 5 0 0 9
1 6 0 0 9
1 7 0 0 9
1 8 0 0 9
1 9 0 0 9
1 10 0 0 9
1 11 0 0 9
2 2 0 0 9
2 3 0 1.07975 9
2 4 0 2.41525 9
2 5 0 0 9
2 6 0 0 9
2 7 0 0 9
2 8 0 0 9
2 9 0 0 9
2 10 0 0 9
2 11 0 0 9
3 3 0.352644 2.1595 9
3 4 0.067146 3.495 9
3 5 0 0 9
3 6 0 0 9
3 7 0 0 9
3 8 0 0 9
3 9 0 0 9
3 10 0 0 9
3 11 0 0 9
4 4 0.0127851 4.8305 9
4 5 0 0 9
4 6 0 0 9
4 7 0 0 9
4 8 0 0 9
4 9 0 0 9
4 10 0 0 9
4 11 0 0 9
5 5 0 0 9
5 6 0 0 9
5 7 0 0 9
5 8 0 0 9
5 9 0 0 9
5 10 0 0 9
5 11 0 0 9
6 6 0 0 9
6 7 0 0 9
6 8 0 0 9
6 9 0 0 9
6 10 0 0 9
6 11 0 0 9
7 7 0 0 9
7 8 0 0 9
7 9 0 0 9
7 10 0 0 9
7 11 0 0 9
8 8 0 0 9
8 9 0 0 9
8 10 0 0 9
8 11 0 0 9
9 9 0 0 9
9 10 0 0 9
9 11 0 0 9
10 10 0 0 9
10 11 0 0 9
11 11 0 0 9

Bond Coeffs # harmonic

1 100000 1

Angle Coeffs # harmonic

1 100000 109.47

Atoms # full

1250 417 2 0.4238 -10.524439756365332 -5.885647031241909 -4.875169562759517 -5 19 12
1249 417 1 -0.8476 -11.374695352924782 -6.236025798841425 -4.482370841842793 -5 19 12
767 256 2 0.4238 -8.428314623619073 -6.573972027653293 -9.062380436558032 4 -3 8
14 5 2 0.4238 -6.420230974479069 -5.77921001109509 -6.153452969380844 22 -19 -12
768 256 2 0.4238 -8.996570244237358 -8.0771598968077 -9.352406428775318 4 -3 8
351 117 2 0.4238 -11.232275653968795 -8.520321055883798 -11.464733336869728 2 -3 1
766 256 1 -0.8476 -9.0798701890672 -7.27196770008779 -8.765279660542557 4 -3 8
1176 392 2 0.4238 -12.265447180446872 -11.298482598858133 -9.859345604739218 -8 -6 -9
15 5 2 0.4238 -7.468521089626107 -6.439790600353606 -7.217089366745163 22 -19 -12
13 5 1 -0.8476 -6.507979016116419 -6.384639651322114 -6.9444940475858346 22 -19 -12
349 117 1 -0.8476 -10.414359713088631 -8.23177055661342 -11.962472088624882 2 -3 1
5 2 2 0.4238 -5.6204297052084975 -11.62774693258481 -7.316173176988695 -11 18 -5
953 318 2 0.4238 -10.168986863798454 -6.460866639424687 -11.971965348115026 -2 -17 -7
641 214 2 0.4238 -4.715205995927978 -11.70716452494904 -10.919906487809174 -12 2 6
1463 488 2 0.4238 -6.521323132978748 -9.0956981549335 -11.071761976702279 17 -7 -4
1174 392 1 -0.8476 -11.713643142874341 -12.12488359022006 -9.971428763182953 -8 -6 -9
4 2 1 -0.8476 -5.097494628534201 -10.883186466143412 -6.901252882382088 -11 18 -5
618 206 2 0.4238 -8.820572750587239 -10.274030394846134 -10.361617941175368 -5 5 -10
6 2 2 0.4238 -5.1723404819495515 -10.06515925864976 -7.471534171772276 -11 18 -5
952 318 1 -0.8476 -9.43680909253381 -5.783315827009823 -12.04147899034708 -2 -17 -7
616 206 1 -0.8476 -8.404256951369984 -9.36978869680749 -10.45658864972233 -5 5 -10
1315 439 1 -0.8476 -7.446969566979034 -5.305823020956216 -9.737187943016895 -3 4 6
1316 439 2 0.4238 -8.0174595575298 -4.771122225438872 -9.11378783357316 -3 4 6
1499 500 2 0.4238 -7.869014615716952 -12.169070100362598 -8.18883054781137 -7 15 -4
617 206 2 0.4238 -8.91559385310762 -8.83654104712743 -11.130512352253236 -5 5 -10
950 317 2 0.4238 -4.312348125323629 -11.915985278519944 -5.709355694719563 -11 9 -10
1317 439 2 0.4238 -7.837762754719229 -5.273621594030652 -10.657098162212653 -3 4 6
564 188 2 0.4238 -4.920252209884712 -6.192660256518968 -7.1891415804067345 6 -15 -7
465 155 2 0.4238 -6.862904878765243 -9.093890830631404 -8.530126113720074 29 -13 -16
463 155 1 -0.8476 -5.947470092677546 -8.8281511949703 -8.227880327003275 29 -13 -16
464 155 2 0.4238 -5.988930018253345 -7.930825186692886 -7.788473538482545 29 -13 -16
1458 486 2 0.4238 -10.667616127814044 -6.342170468939872 -8.526670845995387 -1 -13 20
739 247 1 -0.8476 -6.70552567494658 -4.581400996638194 -4.918773712803317 21 -11 7
776 259 2 0.4238 -9.332420025071325 -4.241392333950712 -7.547368125278425 13 -1 23
1198 400 1 -0.8476 -12.04872472902162 -10.87306092348349 -5.878062298314746 -3 20 -12
1457 486 2 0.4238 -11.349419148659134 -5.363321581224488 -7.41150134191754 -1 -13 20
1199 400 2 0.4238 -11.283579607669063 -10.533059438378876 -6.424819336618298 -3 20 -12
1426 476 1 -0.8476 -8.256593214229063 -8.823036695191087 -4.353616022678153 -3 11 -16
1462 488 1 -0.8476 -5.555269382050026 -8.893009409205643 -11.231914710493498 17 -7 -4
711 237 2 0.4238 -9.216402967373806 -8.590719163489462 -7.387397828820956 -16 17 14
1427 476 2 0.4238 -7.312405223971922 -9.133579906249038 -4.463449478801837 -3 11 -16
1456 486 1 -0.8476 -11.374319992160288 -5.652592512097386 -8.368420174613526 -1 -13 20
535 179 1 -0.8476 -9.288944829795636 -11.500708399538885 -8.779372329565327 4 -8 23
1200 400 2 0.4238 -11.836519521652741 -10.768485534367505 -4.906453208162036 -3 20 -12
710 237 2 0.4238 -9.067930618409331 -9.332972721606007 -5.940463476041292 -16 17 14
536 179 2 0.4238 -10.20484031423916 -11.806832698862411 -9.039014805225449 4 -8 23
331 111 1 -0.8476 -5.4664278860062065 -9.457833813957349 -4.64678895980362 -11 2 -7
333 111 2 0.4238 -5.457984120259501 -9.843547385124637 -5.569364383898697 -11 2 -7
1464 488 2 0.4238 -4.99093564872089 -9.594897537822881 -10.797321472610435 17 -7 -4
537 179 2 0.4238 -9.35959138852315 -10.674192491867805 -8.220918104175333 4 -8 23
883 295 1 -0.8476 -9.24888469071287 -4.773358960971071 -5.647323816521182 -4 -6 16
884 295 2 0.4238 -8.252400269097901 -4.7742911240207055 -5.731044882960824 -4 -6 16
709 237 1 -0.8476 -9.274123383419766 -9.46734073589463 -6.909700892642075 -16 17 14
1126 376 1 -0.8476 -4.966411215305883 -6.497435559014462 -12.048652972746392 15 -3 15
1127 376 2 0.4238 -5.329686875138398 -7.3506193139858595 -11.674353940255914 15 -3 15
1059 353 2 0.4238 -5.037691519573764 -4.844451482914239 -11.525499964839282 1 -18 16
62 21 2 0.4238 -4.751593905274398 -4.282908589471045 -8.004120352833324 -2 -16 4
806 269 2 0.4238 -7.274474817844185 -8.159540386303519 -1.6382884026824058 1 5 20
1278 426 2 0.4238 -5.478165044023316 -7.605002689065671 -3.8444460892336387 -12 -7 0
1102 368 1 -0.8476 -8.747366617806266 -5.213995657253448 -1.4651639170851887 14 -6 8
1275 425 2 0.4238 -6.615368574292924 -11.376582500784586 -0.6212080406307123 2 13 -10
358 120 1 -0.8476 -12.0068789398474 -4.351364613378397 1.6561232965640968 11 -17 3
360 120 2 0.4238 -12.134466938819003 -5.341521205894934 1.5986619026968576 11 -17 3
1052 351 2 0.4238 -4.172173440074955 -11.541743166819526 -1.0332418798840877 -1 11 -21
1103 368 2 0.4238 -8.125507229795113 -4.446921393850138 -1.6228959676729087 14 -6 8
805 269 1 -0.8476 -7.140756783579228 -8.229416550152335 -0.6497403814886002 1 5 20
1419 473 2 0.4238 -12.199011508998183 -11.95823985392516 -1.6543708524686416 -3 14 -4
1274 425 2 0.4238 -8.108489479478397 -10.970694560464343 -0.09924271942707996 2 13 -10
807 269 2 0.4238 -7.858246647264272 -8.804112601315692 -0.25613802082929205 1 5 20
1296 432 2 0.4238 -5.427374338059258 -5.334972679268368 0.06405361967906309 5 0 -19
1051 351 1 -0.8476 -4.923219123331693 -11.274263811891581 -1.6368779570698013 -1 11 -21
740 247 2 0.4238 -6.400461848833629 -5.106223793264666 -4.124111105515981 21 -11 7
1294 432 1 -0.8476 -5.115746446771135 -6.095644173472261 -0.5053829503896594 5 0 -19
1277 426 2 0.4238 -5.349115529020599 -6.735086453237255 -2.468511708500115 -12 -7 0
668 223 2 0.4238 -11.226171550394657 -7.186956925016533 -1.8000391181997877 2 -13 -9
1045 349 1 -0.8476 -11.936883108102503 -7.187364467485494 2.343812679492771 -3 -2 -1
1295 432 2 0.4238 -5.668395022557162 -6.9059887741534105 -0.3106725485721036 5 0 -19
693 231 2 0.4238 -12.33718520747437 -10.45881105422986 2.2798305728118873 9 -9 -6
1251 417 2 0.4238 -11.558223992697831 -5.771021974817895 -3.616299500940899 -5 19 12
1428 476 2 0.4238 -8.26090829615428 -7.8908640099185785 -3.9916423707628255 -3 11 -16
1047 349 2 0.4238 -11.022554599149597 -7.141067411096643 1.941504878969118 -3 -2 -1
1104 368 2 0.4238 -8.913563146908126 -5.312020410813257 -0.48395991821761974 14 -6 8
1053 351 2 0.4238 -4.653569015944136 -10.471610621437634 -2.168881725373968 -1 11 -21
1276 426 1 -0.8476 -5.803331467674816 -6.79440729895196 -3.35742124243391 -12 -7 0
332 111 2 0.4238 -4.667116303920246 -9.783739700014275 -4.14193510794234 -11 2 -7
1273 425 1 -0.8476 -7.468142571681485 -11.726888265290691 -0.23384048816573788 2 13 -10
667 223 1 -0.8476 -11.412188273272783 -8.14334526702224 -1.574849859919354 2 -13 -9
1046 349 2 0.4238 -11.870665085781669 -7.520052869278314 3.2845173075724468 -3 -2 -1
451 151 1 -0.8476 -5.309554563729294 -6.0273432002629965 3.525193060694228 15 28 5
1133 378 2 0.4238 -9.036762954366539 -5.922743261644485 1.9542310754928085 -4 6 -18
314 105 2 0.4238 -11.8562265611279 -4.369476643702393 -1.6065796957581018 11 -16 18
453 151 2 0.4238 -5.410096306253222 -5.1234303348514905 3.9409141738166564 15 28 5
500 167 2 0.4238 -7.253627810206871 -5.6854783133576605 4.146771039165971 -16 15 11
1134 378 2 0.4238 -8.61604050115757 -7.443634339619138 1.5341294809150519 -4 6 -18
452 151 2 0.4238 -4.347401028380249 -6.29898094692882 3.5467537686003805 15 28 5
999 333 2 0.4238 -10.066233751367411 -10.08482301877544 2.6711741473474344 16 8 1
1331 444 2 0.4238 -9.29978897111605 -4.699646942295242 3.800181408720002 3 2 25
1432 478 1 -0.8476 -9.24432166464718 -8.935743202401973 3.6967436498416664 3 -14 8
176 59 2 0.4238 -5.583792301065149 -11.842568336207469 2.140402946097872 29 17 -9
997 333 1 -0.8476 -10.597274410163726 -10.825437490515856 2.2594970174781572 16 8 1
315 105 2 0.4238 -10.47253983474534 -5.160386679525213 -1.962214037353812 11 -16 18
853 285 1 -0.8476 -9.311422209835815 -9.713553071534797 -0.018887855806676512 15 7 -19
313 105 1 -0.8476 -11.470987487113053 -5.211117830357113 -1.9850270905049463 11 -16 18
998 333 2 0.4238 -10.484999541466806 -11.657729543737526 2.8023376071285977 16 8 1
1132 378 1 -0.8476 -9.236492404339952 -6.684374740229006 1.3377758872521834 -4 6 -18
855 285 2 0.4238 -9.743975761227174 -10.262713018637264 0.6961722168136362 15 7 -19
626 209 2 0.4238 -4.445480725889018 -9.486804559251588 2.916132599372798 9 17 -9
1021 341 1 -0.8476 -6.871073279351988 -8.0390657105921 2.542857091050145 13 10 18
1022 341 2 0.4238 -6.271801404426245 -8.603460520158698 1.9751229694949366 13 10 18
625 209 1 -0.8476 -4.775047653224026 -10.086443301147519 2.1868792847276683 9 17 -9
1023 341 2 0.4238 -6.357264151016016 -7.256446653648708 2.8942807201789176 13 10 18
1433 478 2 0.4238 -8.500214147809585 -8.374165742769286 3.3349070347712964 3 -14 8
854 285 2 0.4238 -10.01291757776786 -9.359152513718307 -0.6371885376782043 15 7 -19
1472 491 2 0.4238 -10.78864083070847 -9.1477945836956 -3.114139793559355 2 0 -13
1473 491 2 0.4238 -9.575504781906924 -9.784971319366896 -4.002344528959323 2 0 -13
1471 491 1 -0.8476 -10.469102843368534 -9.96621758139803 -3.591707240297586 2 0 -13
669 223 2 0.4238 -12.198341336776815 -8.193917573324697 -0.9588974462082405 2 -13 -9
1095 365 2 0.4238 -10.571324512468967 -11.578315064488969 -2.6719797333815745 8 -7 11
606 202 2 0.4238 -6.488249569298015 -12.360817905859268 7.688460873522066 -2 -12 -3
753 251 2 0.4238 -4.315057242102766 -8.02460240495185 5.052139477141777 18 -5 -1
173 58 2 0.4238 -11.692879981311178 -11.95727945591527 11.826531112562497 -2 12 11
163 55 1 -0.8476 -5.267054307119971 -7.582858513593747 6.578641831157144 -7 -3 -2
1291 431 1 -0.8476 -10.994534383662495 -9.332066446800601 10.351156837696946 -8 -6 1
1293 431 2 0.4238 -11.969977950318853 -9.12513784302349 10.426531798639898 -8 -6 1
164 55 2 0.4238 -5.505168194988436 -6.637247993738089 6.800257344338364 -7 -3 -2
411 137 2 0.4238 -9.837148620057631 -5.167889130653559 10.521621641280111 -5 -13 -6
409 137 1 -0.8476 -8.881684364435122 -5.344984086700306 10.285577073392284 -5 -13 -6
1128 376 2 0.4238 -5.15830249080478 -6.455218907038646 11.881421231989831 15 -3 14
990 330 2 0.4238 -8.173435721560253 -8.336260368686148 9.372987002091234 5 4 -11
471 157 2 0.4238 -7.567674195360585 -10.296846403014829 7.182492846539011 3 -5 -7
1156 386 1 -0.8476 -10.46731048435454 -12.372208119531217 9.555477250840989 16 -22 3
988 330 1 -0.8476 -9.08786076574335 -7.948413464921462 9.257265364465761 5 4 -11
989 330 2 0.4238 -9.767892405614024 -8.582518340663931 9.625312727501198 5 4 -11
948 316 2 0.4238 -6.95332660325203 -10.042509421628552 9.183512849008315 -15 19 -2
410 137 2 0.4238 -8.816963981172172 -6.2063474371199145 9.781735700436231 -5 -13 -6
1248 416 2 0.4238 -11.80393937007075 -8.573409310723493 5.703010982216901 -7 3 6
1434 478 2 0.4238 -9.867960177190513 -8.361316086915256 4.2269311885303775 3 -14 8
501 167 2 0.4238 -8.063188573272019 -5.491932487604189 5.551674672123701 -16 15 11
165 55 2 0.4238 -6.093185189959934 -8.082168578522376 6.3175121592834405 -7 -3 -2
499 167 1 -0.8476 -8.130933846797626 -5.81684274468185 4.608364602070823 -16 15 11
1158 386 2 0.4238 -9.911472494505706 -12.2952662134435 8.727760416539928 16 -22 3
1292 431 2 0.4238 -10.875181298511107 -10.300515637656927 10.132404615099256 -8 -6 1
1190 397 2 0.4238 -4.433877228888196 -11.557451789000268 10.273972780633228 5 -30 0
1247 416 2 0.4238 -10.898235486336535 -7.216541159572442 5.7752068295769075 -7 3 6
377 126 2 0.4238 -8.162193221725147 -4.290644161098314 9.185018073281496 3 -8 -4
470 157 2 0.4238 -8.270220686544487 -11.674305272818525 7.7075050579588495 3 -5 -7
645 215 2 0.4238 -7.321640455345901 -4.172407112027745 11.122028695207257 -2 -2 21
469 157 1 -0.8476 -7.51917053908965 -11.031681351826233 7.858995832321201 3 -5 -7
1246 416 1 -0.8476 -11.315681084599658 -7.88794932421801 5.1628818118427535 -7 3 6
33 11 2 0.4238 -12.303762866035182 -5.815957941605428 11.25354427842092 14 2 4
947 316 2 0.4238 -5.966601098296419 -9.801432528229919 10.462127323094402 -15 19 -2
1383 461 2 0.4238 -4.206877501702827 -8.48321582562416 7.702543401656376 3 4 -18
946 316 1 -0.8476 -6.726951826044674 -9.422424208704207 9.934671339021742 -15 19 -2
304 102 1 -0.8476 -5.196444891304185 -6.413435541134188 10.196141842722197 8 -14 -1
306 102 2 0.4238 -4.929415882367971 -7.347204211447099 9.957891824322784 8 -14 -1
305 102 2 0.4238 -4.412633559048411 -5.803104466191017 10.081567357233377 8 -14 -1
31 11 1 -0.8476 -11.684809012746264 -5.292126748173598 10.668319614773813 14 2 4
1201 401 1 -0.8476 -7.032892912879669 -9.25414393065946 5.648467368299501 0 4 4
32 11 2 0.4238 -12.036268734300108 -5.286453636647693 9.732138475390064 14 2 4
954 318 2 0.4238 -9.01404973805797 -5.841013064486847 11.964699678037436 -2 -17 -8
965 322 2 0.4238 -4.905668440039976 -9.571864099739136 12.19676255426125 7 -1 -8
1203 401 2 0.4238 -6.503770074485197 -10.101973253824864 5.613752082205346 0 4 4
1202 401 2 0.4238 -7.541066118163055 -9.14318595231669 4.7943947342584945 0 4 4
350 117 2 0.4238 -10.432398112323455 -8.617023049448004 12.025475059061138 2 -3 0
964 322 1 -0.8476 -4.608489806995518 -10.089137479714049 11.39420228255844 7 -1 -8
852 284 2 0.4238 -5.680559440793576 -11.95541501431944 6.110425685499086 -5 -5 -3
850 284 1 -0.8476 -5.6947798575506825 -11.67307537153714 5.151221027429399 -5 -5 -3
956 319 2 0.4238 -9.785573866760267 -4.907357923871343 6.9106266932968285 -10 26 -12
913 305 1 -0.8476 -10.461584707547495 -6.366443530007169 7.270257677509276 10 6 7
914 305 2 0.4238 -9.922074157392613 -6.890391107467794 7.929347065698325 10 6 7
915 305 2 0.4238 -11.38988007353116 -6.244354006244007 7.621474643851803 10 6 7
1003 335 1 -0.8476 -9.22975621057537 2.4606970653337648 -12.385201160681573 -16 -5 -5
120 40 2 0.4238 -4.667379713419111 0.5933627209289671 -4.238110195866719 12 12 -13
794 265 2 0.4238 -10.553818861007668 -1.1616705213744432 -9.509287393271189 -7 23 -4
1019 340 2 0.4238 -8.186306237197748 4.11399884370614 -4.68497160720372 12 -1 3
1460 487 2 0.4238 -10.401466416877497 -1.653705231195973 -5.362663956917389 -3 10 8
763 255 1 -0.8476 -10.47678075786725 2.200741359714458 -5.8754570832059985 18 -10 -2
211 71 1 -0.8476 -5.606369603157788 3.65405714316274 -6.358236393922311 3 -16 -8
1044 348 2 0.4238 -8.380327666820804 0.9064085663803318 -12.399933722673802 -18 5 14
1020 340 2 0.4238 -8.128773769219684 2.509352282924949 -4.982298150971621 12 -1 3
25 9 1 -0.8476 -11.9707123604042 2.4913520776626044 -8.157243045050969 -4 -3 -15
1042 348 1 -0.8476 -7.639646808394316 0.2706893037271101 -12.18257685832265 -18 5 14
795 265 2 0.4238 -9.887216691087785 0.2785087339044434 -9.894159145476467 -7 23 -4
765 255 2 0.4238 -10.92607963323449 2.0441157023258967 -6.754996052433437 18 -10 -2
213 71 2 0.4238 -4.737007998611238 3.478345700605985 -5.896362873154574 3 -16 -8
212 71 2 0.4238 -6.361683263419353 3.4562740322446857 -5.733437055505618 3 -16 -8
931 311 1 -0.8476 -8.149723538365102 0.34934848299617904 -5.560125320244257 1 -4 -7
786 262 2 0.4238 -11.442117506943571 -1.6465515248306826 -7.530836629671239 6 21 22
1043 348 2 0.4238 -7.716465023357592 -0.01668851139417349 -11.227849612317408 -18 5 14
663 221 2 0.4238 -6.018909787930289 3.7629683976596464 -9.854555833683355 3 -12 7
1461 487 2 0.4238 -11.505716361513175 -0.4524268016579338 -5.298130071136043 -3 10 8
1328 443 2 0.4238 -9.753959022837336 -2.335981200758752 -11.437672918027681 -7 3 6
26 9 2 0.4238 -11.221585126223601 2.5241164659165936 -8.818851673109322 -4 -3 -15
764 255 2 0.4238 -11.041126756395188 1.8236847478990796 -5.1410642231557775 18 -10 -2
793 265 1 -0.8476 -9.976499965169936 -0.6791214595141035 -10.167953154769656 -7 23 -4
1018 340 1 -0.8476 -7.67332019668775 3.2712573264782634 -4.52180460216035 12 -1 3
404 135 2 0.4238 -9.521274774923816 2.237044337967877 -10.561395947185533 0 0 16
1000 334 1 -0.8476 -6.423865475455807 0.17660532496872428 -9.601614148832358 3 -10 -26
1459 487 1 -0.8476 -11.146832797718654 -1.202597999376854 -5.853501318913766 -3 10 8
809 270 2 0.4238 -6.361164155802483 1.7453392349034509 -9.115480788438676 -22 3 -4
1329 443 2 0.4238 -9.809727556606624 -3.9211293512417935 -11.826000834580608 -7 3 6
808 270 1 -0.8476 -6.7381184880586185 2.6406853893537825 -8.878307100299736 -22 3 -4
1327 443 1 -0.8476 -9.65968098756382 -2.9983459369120027 -12.180892768240371 -7 3 6
933 311 2 0.4238 -8.003563285620771 -0.33351945714295006 -6.275890768469386 1 -4 -7
785 262 2 0.4238 -12.310212293110204 -2.4607284670088756 -8.648929298221992 6 21 22
1002 334 2 0.4238 -6.866282624465161 -0.18833950242516195 -8.7824232726892 3 -10 -26
784 262 1 -0.8476 -11.405618316309692 -2.100426253528335 -8.421149593561363 6 21 22
1001 334 2 0.4238 -5.502546113593867 -0.20409925266326034 -9.680520142148914 3 -10 -26
810 270 2 0.4238 -6.4902225821055985 2.867851606323635 -7.936535219533555 -22 3 -4
55 19 1 -0.8476 -7.390234651581384 -1.305044615368212 -7.646703853950536 3 5 9
57 19 2 0.4238 -8.01205088385931 -1.6712554610712527 -8.338964946230451 3 5 9
775 259 1 -0.8476 -9.22026645893056 -3.597897660889096 -8.30455218584357 13 -1 23
885 295 2 0.4238 -9.550989843595417 -3.897228894116216 -5.271665376398751 -4 -6 16
932 311 2 0.4238 -9.008950031289906 0.8318306864472671 -5.730217600891185 1 -4 -7
56 19 2 0.4238 -6.6014465990622675 -1.9124303723426994 -7.552432701338436 3 5 9
777 259 2 0.4238 -10.08101491448351 -3.1133305003122462 -8.460432066921944 13 -1 23
741 247 2 0.4238 -6.669076854242468 -3.6047288342498884 -4.707174030262029 21 -11 7
1107 369 2 0.4238 -11.464778890819867 0.18398417458274885 -11.539229507015197 -4 4 2
405 135 2 0.4238 -8.635479225548984 2.366233240615923 -9.195643508959492 0 0 16
1057 353 1 -0.8476 -5.253321172290854 -3.87527157485475 -11.406398758742455 1 -18 16
403 135 1 -0.8476 -9.471819562682436 1.9894161099690137 -9.59380816095391 0 0 16
61 21 1 -0.8476 -5.070825219609071 -3.3986761005417527 -8.345023906343554 -2 -16 4
63 21 2 0.4238 -5.424488651897973 -3.5075755911451694 -9.27403103172433 -2 -16 4
1058 353 2 0.4238 -5.960196934471202 -3.6081462498181587 -12.061350566719891 1 -18 16
1384 462 1 -0.8476 -7.551420404915345 -2.6164689809445587 -2.1284629559805595 -14 3 -6
1437 479 2 0.4238 -5.337921342844783 3.725294913835116 -0.25747894342091904 4 16 -3
171 57 2 0.4238 -10.017833057008977 3.53089619588137 2.488674443599267 -3 6 20
577 193 1 -0.8476 -4.655045766107135 -1.0492462488039003 0.15556232076219523 -1 -1 -8
1137 379 2 0.4238 -11.614013581282842 2.0350407748336927 -1.7628237414117578 13 10 -4
840 280 2 0.4238 -9.973982762577993 3.5247477073376245 -1.5010336516531506 28 0 9
1241 414 2 0.4238 -5.5183892780369295 -3.6495300310047885 1.7544305309530461 -5 0 0
839 280 2 0.4238 -8.539937109169351 3.6308728172397853 -2.274889208811448 28 0 9
1469 490 2 0.4238 -12.284882326664269 -3.412346405937301 -3.551710233363691 -19 14 2
328 110 1 -0.8476 -6.697181883801502 1.133015719587961 -1.5175151528365998 -4 8 6
579 193 2 0.4238 -5.532267653193679 -0.5769334908261499 0.0695768785687978 -1 -1 -8
721 241 1 -0.8476 -7.673512505459965 3.5583698559176167 2.2533354979378117 -22 5 14
1135 379 1 -0.8476 -11.305499403539299 2.5370057655850946 -0.9548379266123934 13 10 -4
1136 379 2 0.4238 -11.497559716094152 1.9984746830895563 -0.13441849762439695 13 10 -4
679 227 1 -0.8476 -5.82905353884425 -2.148164053725754 -4.134135810916256 -10 25 9
722 241 2 0.4238 -6.808529293348553 3.746444519318336 1.7881221023388498 -22 5 14
827 276 2 0.4238 -10.02856212257515 0.9868611854333231 -2.851184038466224 8 0 -8
681 227 2 0.4238 -4.934764150106736 -2.5956331457426742 -4.1372818201685995 -10 25 9
680 227 2 0.4238 -5.710383045457629 -1.1671970870037889 -3.9804710744718648 -10 25 9
329 110 2 0.4238 -7.62574587636487 1.015305990753392 -1.8695164047129715 -4 8 6
723 241 2 0.4238 -7.6938808731037875 2.6021825172421824 2.5453670678731264 -22 5 14
169 57 1 -0.8476 -10.99762423512873 3.4182301341170227 2.323425809207892 -3 6 20
330 110 2 0.4238 -6.043653850892177 0.7356459271470577 -2.1617124761436273 -4 8 6
1332 444 2 0.4238 -10.435007757731748 -3.5272098026055207 3.7429716301819393 3 2 25
1330 444 1 -0.8476 -9.847874779778309 -4.122677286289001 3.1946243997809027 3 2 25
1386 462 2 0.4238 -6.7867512124549965 -2.4701154041668545 -2.756039600173935 -14 3 -6
1368 456 2 0.4238 -4.403391914931047 3.0239695154036195 1.9623899013263877 2 -2 -10
1514 0 4 -1 -12.1481127173491 0.9839661251892764 -3.3549389887091703 -2 -2 -11
359 120 2 0.4238 -11.217115774525201 -4.150133960918314 2.235580791976716 11 -17 3
743 248 2 0.4238 -7.369958557510724 -3.0852954430236856 2.655243463843817 -8 -1 4
393 131 2 0.4238 -12.403030268904617 4.088372354190005 -1.4301322539094201 1 -14 -10
478 160 1 -0.8476 -11.394422264524655 -1.712783418221541 -2.011215974647392 14 9 -9
745 249 1 -0.8476 -8.620408954317552 -1.8091236052202113 1.7912270654903217 -1 -5 -5
747 249 2 0.4238 -9.44066404542461 -2.300787760619798 2.0835271935629276 -1 -5 -5
746 249 2 0.4238 -8.857858617394514 -1.1699142277932637 1.0597759705435337 -1 -5 -5
742 248 1 -0.8476 -6.601999219670144 -3.351801543286655 3.2376557767276513 -8 -1 4
828 276 2 0.4238 -8.649608351751759 0.7382942822169358 -3.6898164103265483 8 0 -8
1242 414 2 0.4238 -4.700233121643859 -2.937572154305494 0.5336363110436739 -5 0 0
826 276 1 -0.8476 -9.041036471568852 0.848420689453361 -2.776225943426086 8 0 -8
1435 479 1 -0.8476 -5.599871636164691 3.045626349810311 0.4276644730978507 4 16 -3
1385 462 2 0.4238 -7.48664246345719 -1.9705680551342262 -1.3678009270027633 -14 3 -6
1436 479 2 0.4238 -6.138028870089878 2.323871683189914 -0.0075908538468798525 4 16 -3
1240 414 1 -0.8476 -4.898023160634294 -3.8071283259769917 0.9861208106986119 -5 0 0
480 160 2 0.4238 -12.018216574554629 -1.9674614731916673 -1.2722903451950955 14 9 -9
479 160 2 0.4238 -11.795286930528588 -0.9673437432583629 -2.5437739010408507 14 9 -9
505 169 1 -0.8476 -8.071253144213678 0.974407607731612 2.9679924849893577 4 -11 13
506 169 2 0.4238 -8.251104224433648 0.7862719591373306 3.933523238698525 4 -11 13
829 277 1 -0.8476 -11.903254807092551 0.9227011844101334 1.3551237796420565 4 -10 -10
830 277 2 0.4238 -11.191213733207514 0.27545219133414633 1.082989951916387 4 -10 -10
507 169 2 0.4238 -8.276688126116198 0.15968240680044232 2.425765380303842 4 -11 13
118 40 1 -0.8476 -4.865511786536576 0.20735215857313882 -3.33714940253558 12 12 -13
170 57 2 0.4238 -11.184526972011636 2.471891862258051 2.059795079803303 -3 6 20
730 244 1 -0.8476 -9.443374406428143 -0.4952566090010144 -0.36507722313843516 -10 -3 -16
744 248 2 0.4238 -6.5034783232219215 -2.6915200971474658 3.982177992252444 -8 -1 4
731 244 2 0.4238 -9.106640013247466 0.26600694367078503 -0.9192245206070435 -10 -3 -16
732 244 2 0.4238 -10.112892043294423 -1.019786243294691 -0.8910111975270105 -10 -3 -16
902 301 2 0.4238 -8.816357485725492 -2.7886578892753793 -3.7255279680467375 9 15 -1
903 301 2 0.4238 -10.328522209630602 -2.282997053352508 -3.3730127948880604 9 15 -1
901 301 1 -0.8476 -9.723504917188517 -2.6018437866697077 -4.1025895688931175 9 15 -1
376 126 1 -0.8476 -7.782030125807935 -3.603234330110139 8.566201710942805 3 -8 -4
466 156 1 -0.8476 -4.747339162627426 2.626552666179151 7.543776284535932 9 4 -8
292 98 1 -0.8476 -8.662606821303394 1.1174821348020867 8.504898494062692 4 1 5
467 156 2 0.4238 -4.324736431443835 2.2957244705476487 8.387548305911507 9 4 -8
378 126 2 0.4238 -8.347544375407473 -3.5462699031870173 7.743438058973643 3 -8 -4
190 64 1 -0.8476 -11.081726126788757 3.8636362501792636 10.898486507463973 -12 1 -10
293 98 2 0.4238 -8.815259764313012 1.0814339603224123 7.517280697893893 4 1 5
441 147 2 0.4238 -9.445119422920454 -1.528127785762294 9.947522108152667 -7 -8 10
79 27 1 -0.8476 -8.864069413436892 0.006520578181838488 5.430724956292968 -2 -4 -14
366 122 2 0.4238 -6.665855281261841 4.076040199247194 11.489039315811555 11 -5 1
955 319 1 -0.8476 -9.26334544694891 -4.123139528473384 6.575559010482602 -10 26 -12
80 27 2 0.4238 -9.086402870910856 0.9741686054325935 5.549959582005217 -2 -4 -14
1512 0 4 -1 -11.256276082530224 -2.151069263509937 5.005024307100529 6 -2 -6
957 319 2 0.4238 -9.875472525245378 -3.4966304215293587 6.093088562878448 -10 26 -12
1106 369 2 0.4238 -10.623681980219553 0.1881305003019147 11.97165460601572 -4 4 1
1285 429 1 -0.8476 -11.140628529158723 1.9130619543096241 8.799405388249903 2 18 16
1105 369 1 -0.8476 -11.451354420896315 0.5150160655877745 12.427828443660426 -4 4 1
468 156 2 0.4238 -5.091399280712559 3.554810239919801 7.685028144934554 9 4 -8
1334 445 2 0.4238 -7.241753002493826 -1.9245065215145942 9.49733320940184 -11 1 -4
551 184 2 0.4238 -7.440116265916068 -0.9678900870446139 5.691157303191849 -10 -17 -9
1333 445 1 -0.8476 -7.523407527904787 -1.0051051664227888 9.771856697826285 -11 1 -4
1286 429 2 0.4238 -10.30704684321109 1.3870364721899282 8.968015888394257 2 18 16
1287 429 2 0.4238 -11.197729256156052 2.6662638368041502 9.454704281343028 2 18 16
845 282 2 0.4238 -5.51866491621452 -3.156474414782272 6.5066466003377155 -2 1 5
643 215 1 -0.8476 -7.285466594944868 -3.3093816833029948 11.62588261183764 -2 -2 21
484 162 1 -0.8476 -8.48433441439229 3.896997365544477 8.580784468898935 3 2 4
440 147 2 0.4238 -10.412789412298896 -2.469544849042151 10.866190065769006 -7 -8 10
644 215 2 0.4238 -8.185048478318077 -3.1133023090728553 12.01613461176685 -2 -2 21
439 147 1 -0.8476 -10.393783814717427 -1.741214700962697 10.181234186358322 -7 -8 10
882 294 2 0.4238 -4.56483991973992 0.9773583234979348 6.611563347143202 -2 -7 7
284 95 2 0.4238 -11.691343470316289 -1.6171403868445946 9.046369646866134 -2 7 9
880 294 1 -0.8476 -4.429179556935583 0.010040674800718463 6.397357591886033 -2 -7 7
285 95 2 0.4238 -12.310485544542708 -1.9859878200211352 7.581031422489639 -2 7 9
216 72 2 0.4238 -12.385222917347594 -0.02558438935015772 5.942942487589248 -6 -2 -19
485 162 2 0.4238 -8.212612519979412 4.116116394411675 9.517878614989955 3 2 4
550 184 1 -0.8476 -6.730018844183019 -1.5104162749980308 6.139953981067519 -10 -17 -9
844 282 1 -0.8476 -5.2082443378536425 -3.9870791489779656 6.968951964064194 -2 1 5
486 162 2 0.4238 -8.660363328380162 2.9154890056893663 8.505645792284371 3 2 4
846 282 2 0.4238 -5.62881361777738 -4.0414846299814045 7.874574061367779 -2 1 5
81 27 2 0.4238 -9.684816598037246 -0.4921727112765044 5.152030624938524 -2 -4 -14
191 64 2 0.4238 -11.940772004643971 3.9433534851597987 11.404131477568763 -12 1 -10
473 158 2 0.4238 -4.494698851521113 -0.61755655329865 12.364081054053107 -3 -19 4
1005 335 2 0.4238 -9.954524555218203 2.853163632111439 11.959097064194504 -16 -5 -6
1335 445 2 0.4238 -7.408346641963998 -0.9023406473112718 10.759880642290684 -11 1 -4
474 158 2 0.4238 -5.757766661494727 0.4151778179303598 12.295355425842326 -3 -19 4
472 158 1 -0.8476 -4.775502820290056 0.3149348180151037 12.136923982343424 -3 -19 4
788 263 2 0.4238 -12.409886024005461 -3.7989430852867283 11.753457759694504 9 1 -23
789 263 2 0.4238 -12.017148064982166 -2.2169127739174694 11.851130125033732 9 1 -23
1004 335 2 0.4238 -8.370358946398778 2.93944295524679 12.34584906771469 -16 -5 -6
271 91 1 -0.8476 -9.587150519036093 2.493854073254864 6.01404754522156 0 16 -10
294 98 2 0.4238 -8.190611181938209 0.28665763187554916 8.799758192364754 4 1 5
272 91 2 0.4238 -10.525479456412059 2.704949377650337 6.287849886648965 0 16 -10
273 91 2 0.4238 -9.168330464155032 3.305285113622979 5.606420219198833 0 16 -10
881 294 2 0.4238 -5.3018440531163 -0.47290261377729514 6.469549833635023 -2 -7 7
552 184 2 0.4238 -7.107828892347531 -1.9414127219726023 6.959400868759728 -10 -17 -9
1185 395 2 0.4238 -5.363232759631154 10.71235162680493 -6.088603623226252 2 -4 -28
654 218 2 0.4238 -7.890701151323839 7.43755366482638 -9.331077517813167 17 11 -6
1010 337 2 0.4238 -6.411034693078821 12.087051612874374 -9.716508311300954 0 2 9
1184 395 2 0.4238 -4.904254478401597 10.140777736841349 -7.547795977654696 2 -4 -28
1186 396 1 -0.8476 -6.568007172067847 7.106517016208857 -10.295613221376787 0 -11 -25
540 180 2 0.4238 -10.652298032693508 11.92149133375318 -4.552012488100897 -14 -11 -5