LAMMPS data file via write_data, version 28 Oct 2021, timestep = 302000

1518 atoms
11 atom types
1000 bonds
1 bond types
500 angles
1 angle types

-12.419934679532238 12.419934679532238 xlo xhi
-12.419934679532238 12.419934679532238 ylo yhi
-12.419934679532238 12.419934679532238 zlo zhi

Masses

1 15.9994
2 1.00794
3 22.989769
4 35.453
5 60
6 60
7 60
8 15.9994
9 1.00794
10 22.989769
11 35.453

PairIJ Coeffs # lj/cut/coul/long

1 1 0.155354 3.169 9
1 2 0 0 9
1 3 0.234061 2.66425 9
1 4 0.044567 3.99975 9
1 5 0 0 9
1 6 0 0 9
1 7 0 0 9
1 8 0 0 9
1 9 0 0 9
1 10 0 0 9
1 11 0 0 9
2 2 0 0 9
2 3 0 1.07975 9
2 4 0 2.41525 9
2 5 0 0 9
2 6 0 0 9
2 7 0 0 9
2 8 0 0 9
2 9 0 0 9
2 10 0 0 9
2 11 0 0 9
3 3 0.352644 2.1595 9
3 4 0.067146 3.495 9
3 5 0 0 9
3 6 0 0 9
3 7 0 0 9
3 8 0 0 9
3 9 0 0 9
3 10 0 0 9
3 11 0 0 9
4 4 0.0127851 4.8305 9
4 5 0 0 9
4 6 0 0 9
4 7 0 0 9
4 8 0 0 9
4 9 0 0 9
4 10 0 0 9
4 11 0 0 9
5 5 0 0 9
5 6 0 0 9
5 7 0 0 9
5 8 0 0 9
5 9 0 0 9
5 10 0 0 9
5 11 0 0 9
6 6 0 0 9
6 7 0 0 9
6 8 0 0 9
6 9 0 0 9
6 10 0 0 9
6 11 0 0 9
7 7 0 0 9
7 8 0 0 9
7 9 0 0 9
7 10 0 0 9
7 11 0 0 9
8 8 0 0 9
8 9 0 0 9
8 10 0 0 9
8 11 0 0 9
9 9 0 0 9
9 10 0 0 9
9 11 0 0 9
10 10 0 0 9
10 11 0 0 9
11 11 0 0 9

Bond Coeffs # harmonic

1 100000 1

Angle Coeffs # harmonic

1 100000 109.47

Atoms # full

1122 374 2 0.4238 -11.185611953921933 -9.955626571805446 -8.299789436860774 -10 13 25
1120 374 1 -0.8476 -12.10477973621523 -9.773528091651933 -7.950524176951817 -10 13 25
761 254 2 0.4238 -6.767793835735859 -10.924903740474246 -9.83652320087008 -2 12 9
1026 342 2 0.4238 -9.995806323508958 -11.893422892178826 -6.395124188053895 -11 2 -23
1025 342 2 0.4238 -10.04283585892193 -11.4094205259792 -7.954033301919659 -11 2 -23
1502 0 3 1 -8.047059497927467 -11.556955578551786 -12.362258164981794 0 7 2
760 254 1 -0.8476 -6.451162790902338 -11.238816861387619 -10.731631480708897 -2 12 9
1024 342 1 -0.8476 -10.299479147650626 -12.135887139276607 -7.316541311863701 -11 2 -23
1352 451 2 0.4238 -7.217236845830225 -9.363481119784808 -7.373832759809407 3 -17 -1
795 265 2 0.4238 -11.144699121330849 -8.07504453766105 -11.668544398641881 -7 24 -3
983 328 2 0.4238 -6.2639518746311476 -6.878630110742326 -12.12505917404476 -3 1 15
978 326 2 0.4238 -9.342279863468388 -8.415603548855037 -6.999590093458598 27 20 3
794 265 2 0.4238 -12.296361213075942 -9.074743595643143 -11.084640326311302 -7 24 -3
976 326 1 -0.8476 -9.765401738317735 -7.698985569709868 -7.5540646168327354 27 20 3
977 326 2 0.4238 -10.705534664425537 -7.959236743524338 -7.774143735436629 27 20 3
786 262 2 0.4238 -10.871371921433592 -11.817438728986362 -12.31994610415237 6 21 22
784 262 1 -0.8476 -10.159368249743988 -12.110154827834176 -11.681679985535087 6 21 22
1351 451 1 -0.8476 -7.095710223198942 -9.534303111716175 -8.351619636871753 3 -17 -1
793 265 1 -0.8476 -11.324393388670686 -8.841831977070187 -11.052295693262302 -7 24 -3
452 151 2 0.4238 -6.998390472698991 -8.907240112876464 -11.808043345929622 15 28 6
451 151 1 -0.8476 -7.939835878712866 -9.113314602078624 -12.074931569779242 15 28 6
921 307 2 0.4238 -8.733256335962416 -9.896935494034574 -9.141679577916337 -4 19 1
1353 451 2 0.4238 -6.933674482790031 -8.667787287631976 -8.82375354030886 3 -17 -1
919 307 1 -0.8476 -9.716842141590586 -10.072743785942675 -9.182495162061848 -4 19 1
920 307 2 0.4238 -10.079535014921312 -9.737641029485731 -10.052078816305643 -4 19 1
1511 0 4 -1 -3.465972315563109 -12.211325558430064 -10.24437867181338 -10 9 8
945 315 2 0.4238 -3.011422083566016 -12.091777892503588 -12.360722234617567 -10 11 -5
36 12 2 0.4238 -1.4667446465076548 -9.216033152285856 -9.695538333251285 -7 22 12
34 12 1 -0.8476 -1.0082462028000005 -10.073675878490175 -9.928441562195793 -7 22 12
35 12 2 0.4238 -1.6850262459375625 -10.807240277596105 -9.990632802506111 -7 22 12
193 65 1 -0.8476 -2.111520131075597 -8.063878493539478 -8.389206392936917 -4 6 -19
186 62 2 0.4238 -0.058348263994618677 -8.604003437193173 -10.79218881688053 -1 -1 3
194 65 2 0.4238 -1.9815032822916692 -7.2409342887457955 -7.83614753983273 -4 6 -19
638 213 2 0.4238 -3.210595424677267 -9.930563286654433 -6.604639259008379 6 -9 17
195 65 2 0.4238 -3.062586989870935 -8.365070330178018 -8.32013511801262 -4 6 -19
1076 359 2 0.4238 -0.4843607369902614 -10.33688156222414 -8.128573596919129 10 -22 -2
1075 359 1 -0.8476 -0.3432014699143515 -10.825292237687533 -7.26744371662587 10 -22 -2
1046 349 2 0.4238 -3.9657407290382523 -8.295954556720902 -11.646022511983908 -3 -1 0
1077 359 2 0.4238 -1.139633286266811 -10.696251272540819 -6.676630413023458 10 -22 -2
1045 349 1 -0.8476 -3.0278493118511207 -8.506912111503395 -11.921471398301673 -3 -1 0
762 254 2 0.4238 -5.553618966469089 -11.669173666437546 -10.635590987293579 -2 12 9
982 328 1 -0.8476 -5.57721902134524 -7.257611142624928 -11.504747222735608 -3 1 15
984 328 2 0.4238 -5.527247318346824 -6.695407378755148 -10.679250229663081 -3 1 15
427 143 1 -0.8476 -4.318787441286053 -9.586310365890295 -8.6417780611225 10 1 5
429 143 2 0.4238 -5.254177752886885 -9.892063484901275 -8.46408317446588 10 1 5
428 143 2 0.4238 -3.871592974114032 -10.226992955691031 -9.265924304025473 10 1 5
641 214 2 0.4238 -6.380938394463503 -5.259607412104998 -8.084258490799645 -12 1 5
163 55 1 -0.8476 -11.221760700131972 -3.503431997242993 -9.085405890099214 -6 -3 -2
640 214 1 -0.8476 -6.214120601719136 -5.618703116055545 -9.002538171509311 -12 1 5
164 55 2 0.4238 -10.52240324402216 -4.136251219929221 -9.417752979024897 -6 -3 -2
556 186 1 -0.8476 -9.931361792346287 -2.1872288304050063 -6.790151919657548 0 19 10
557 186 2 0.4238 -10.52990410945627 -2.5140169612796512 -7.521569800084085 0 19 10
325 109 1 -0.8476 -7.738028298815614 -2.962694922731222 -10.130840539537061 5 11 -11
1465 489 1 -0.8476 -6.503799836711918 -3.259923900236128 -7.256123646109742 1 3 6
326 109 2 0.4238 -8.409061692857431 -3.679128273921764 -10.321767525643507 5 11 -11
1466 489 2 0.4238 -7.170032343644812 -2.9702478167008124 -7.943319039672617 1 3 6
841 281 1 -0.8476 -9.353761775925689 -5.217856032961129 -10.429902794659661 -2 -7 7
842 281 2 0.4238 -9.2717282446991 -6.023687727874305 -9.84345476899022 -2 -7 7
843 281 2 0.4238 -9.628696801452437 -5.500916428600668 -11.348762480058832 -2 -7 7
53 18 2 0.4238 -9.136481046107498 -0.6829390595168991 -7.772560895349978 -15 -13 -6
457 153 1 -0.8476 -11.682080588887992 -1.596431098711907 -10.761526600573594 -7 -2 -3
459 153 2 0.4238 -10.71744680191876 -1.3416855868411037 -10.693689556512005 -7 -2 -3
458 153 2 0.4238 -11.981038192725547 -1.5195274784370714 -11.712697283344237 -7 -2 -3
327 109 2 0.4238 -6.835237735869645 -3.2602730446869597 -10.441375576487706 5 11 -11
647 216 2 0.4238 -6.653035320668613 -0.11882954321638017 -8.129889027120964 -4 1 -11
417 139 2 0.4238 -8.254345173799699 -1.5140840991208258 -10.640367914084019 10 4 -22
416 139 2 0.4238 -8.46012827229028 -0.08954046970445084 -9.869007818337694 10 4 -22
415 139 1 -0.8476 -8.586466677678423 -0.5754809887406314 -10.733829148090987 10 4 -22
165 55 2 0.4238 -11.451952867645415 -2.851608751880665 -9.808008045519207 -6 -3 -2
288 96 2 0.4238 -12.095081392882195 -3.5429260180777504 -7.483444064482442 24 6 9
642 214 2 0.4238 -5.596380407763553 -5.004413916646277 -9.493518132614161 -12 1 5
83 28 2 0.4238 -0.43962413781562404 -6.183813026746226 -8.36489071981475 9 -27 1
998 333 2 0.4238 -3.5016654506524905 -3.93072967946204 -10.784245823199996 16 8 2
821 274 2 0.4238 -2.2303765059066016 -5.011018021747494 -11.976868273815997 5 -6 17
820 274 1 -0.8476 -2.234676223417182 -4.065796386220191 -11.650443808660524 5 -6 17
822 274 2 0.4238 -2.5935241733311383 -3.4674047731182167 -12.366803459565917 5 -6 17
648 216 2 0.4238 -5.627841968044588 -0.20060474585592658 -6.861441536689915 -4 1 -11
1042 348 1 -0.8476 -1.51181632666888 -1.213301734449761 -7.281088929008754 -18 6 14
1044 348 2 0.4238 -1.0653538336874195 -1.8681075834028267 -6.671239592921039 -18 6 14
646 216 1 -0.8476 -5.691665092318884 -0.10589602252154862 -7.854906338420988 -4 1 -11
999 333 2 0.4238 -4.053210090373248 -3.510901718106279 -9.305661814105864 16 8 2
997 333 1 -0.8476 -4.320860991705812 -3.7704129949162137 -10.233580095069627 16 8 2
1467 489 2 0.4238 -5.589968846857304 -2.9610016534865586 -7.531030842693433 1 3 6
659 220 2 0.4238 -4.450689979726992 -1.306392706421299 -8.438615277288141 0 -2 3
658 220 1 -0.8476 -3.9358860021173445 -2.1008040980533345 -8.116275320690967 0 -2 3
660 220 2 0.4238 -3.0097974775601024 -1.8186111084065182 -7.865789975663035 0 -2 3
384 128 2 0.4238 -5.833862473106007 -0.9679864447069271 -12.011674416504942 -8 17 -24
382 128 1 -0.8476 -5.654239395334241 -1.9149021029497586 -12.278324841694568 -8 17 -24
383 128 2 0.4238 -4.909437937811312 -2.2824579789675887 -11.721378692851294 -8 17 -24
717 239 2 0.4238 -2.4979229895110926 -5.609218664831411 -6.405245360337158 6 2 5
716 239 2 0.4238 -0.8770317143146045 -5.754374538076947 -6.2699346782710395 6 2 5
715 239 1 -0.8476 -1.681121719204942 -6.035888354765748 -6.793580698317346 6 2 5
1043 348 2 0.4238 -0.8746961033410656 -0.9416631343733695 -8.002411253651891 -18 6 14
1490 497 2 0.4238 -0.487635755699813 -0.8087361580123034 -11.945957639280461 -4 -3 7
203 68 2 0.4238 -0.5883506679592259 -3.132772823639497 -12.07557986505495 -8 14 -15
1489 497 1 -0.8476 -0.7225421278252995 -0.11202935722464957 -11.268141927935575 -4 -3 7
1491 497 2 0.4238 -0.36032211041297835 -0.38001938712579 -10.375396949628497 -4 -3 7
1360 454 1 -0.8476 -6.641578806872966 -6.979652644235061 -0.40378275726666146 14 3 -9
3 1 2 0.4238 -11.246412670723574 -7.263047295918639 -4.086291930989313 9 6 11
824 275 2 0.4238 -12.378104693586499 -12.103463720321349 -1.9456441233580062 5 16 -4
1 1 1 -0.8476 -11.67361632031116 -6.47926993943402 -4.537075309484988 9 6 11
472 158 1 -0.8476 -7.267349184344061 -8.854504636337609 -5.752980039917725 -2 -18 5
293 98 2 0.4238 -9.033520679363374 -6.488545177764553 -5.1666685324451915 5 2 6
467 156 2 0.4238 -9.84280433208159 -11.85522381908603 -4.111783043977281 10 6 -7
473 158 2 0.4238 -7.345326382379158 -9.518987914775211 -5.009745778257402 -2 -18 5
466 156 1 -0.8476 -9.439205273929062 -11.235174383224013 -4.784584882885366 10 6 -7
468 156 2 0.4238 -8.449668530855682 -11.192198881183412 -4.646795366778048 10 6 -7
294 98 2 0.4238 -8.171796187876328 -6.665021919603074 -3.790821752544865 5 2 6
1225 409 1 -0.8476 -10.154750880081219 -9.432762832157385 -1.1095696087200864 -11 12 -12
1226 409 2 0.4238 -10.937874774419916 -9.126915405838602 -0.5680994993403932 -11 12 -12
1227 409 2 0.4238 -10.37125653402634 -9.354143234984772 -2.082688194055505 -11 12 -12
1013 338 2 0.4238 -9.130874707919794 -10.742788347818143 -0.7067584661426682 13 0 -5
1012 338 1 -0.8476 -8.52613445652128 -11.496926193012067 -0.45067016384533254 13 0 -5
713 238 2 0.4238 -9.181646602454848 -8.43498896160487 -3.7472821894950012 -2 29 3
712 238 1 -0.8476 -10.077700081051558 -8.847395408918079 -3.911674771164318 -2 29 3
714 238 2 0.4238 -9.96205509464774 -9.711908641489766 -4.400815967344029 -2 29 3
474 158 2 0.4238 -6.37583154495671 -8.40403109015385 -5.705172778897835 -2 -18 5
1279 427 1 -0.8476 -6.757290104122186 -10.92824411645206 -4.066362998266465 11 -9 -4
1280 427 2 0.4238 -6.90931247578823 -11.140327436028093 -3.10100016076783 11 -9 -4
1232 411 2 0.4238 -6.763014864170892 -8.648586951601729 -2.9379444097321645 -4 -12 13
1231 411 1 -0.8476 -7.62448206740831 -8.167445200310395 -2.7754867134997756 -4 -12 13
1330 444 1 -0.8476 -11.612492922359174 -12.204831495023084 -0.10517317720726282 4 3 25
1233 411 2 0.4238 -7.61387723366812 -7.7647355806963505 -1.860211780864816 -4 -12 13
1241 414 2 0.4238 -2.04210209174531 -9.685665133273748 -1.0755594001609623 -3 1 1
1242 414 2 0.4238 -3.4207061008679336 -8.939225354268542 -0.6184529731110153 -3 1 1
1240 414 1 -0.8476 -2.6812212745025548 -8.947509116074663 -1.2915867689909124 -3 1 1
1430 477 2 0.4238 -1.4360676151057863 -9.561709205827718 -4.474276662739159 -18 9 11
1431 477 2 0.4238 -1.56525325952766 -8.916600135507503 -2.9796820464300193 -18 9 11
1429 477 1 -0.8476 -0.9426904895677684 -9.091578059324291 -3.7424492914942036 -18 9 11
774 258 2 0.4238 -0.8854099566525555 -7.138239849154325 -3.373173025355367 -4 7 7
772 258 1 -0.8476 -1.1027214946165298 -6.335643904085127 -2.8176274279446964 -4 7 7
766 256 1 -0.8476 -4.248527010316806 -12.122952478840737 -4.732908982218256 4 -2 8
1281 427 2 0.4238 -6.023127269459315 -11.506045946344795 -4.42296592171522 11 -9 -4
639 213 2 0.4238 -3.25572778651531 -11.011121156761401 -5.381109318680463 6 -9 17
637 213 1 -0.8476 -2.758687391277917 -10.233143311237818 -5.765449170404272 6 -9 17
404 135 2 0.4238 -4.787533945589548 -7.711136451445128 -4.358995751062386 0 -1 16
405 135 2 0.4238 -3.7652975581230663 -8.34950481807154 -5.46089696105603 0 -1 16
1317 439 2 0.4238 -1.0893996988123078 -11.52062770488663 -0.0389425544261055 -4 4 6
403 135 1 -0.8476 -4.576672852506675 -7.7788683051624465 -5.3341704692196865 0 -1 16
1152 384 2 0.4238 -0.07289474697776299 -6.787174939671333 -1.0688730010998029 1 7 11
559 187 1 -0.8476 -1.1478518527684454 -11.887003174522935 -1.7035515368649676 -19 22 -5
7 3 1 -0.8476 -4.844094011794589 -7.698357379690833 -2.5903895653888878 2 -4 11
8 3 2 0.4238 -5.2380640419316125 -6.980593450599241 -2.016265868923151 2 -4 11
561 187 2 0.4238 -0.4229818895567856 -11.767203619789006 -2.3819519639421483 -19 22 -5
9 3 2 0.4238 -3.974867153501302 -7.9993758628724825 -2.1981549080741445 2 -4 11
558 186 2 0.4238 -10.24685260181224 -2.5510266625789253 -5.913720348646995 0 19 10
445 149 1 -0.8476 -6.711568812280536 -4.177294947460357 -4.684104284919255 3 -4 8
1361 454 2 0.4238 -6.652710893377543 -6.006923508407421 -0.1720723754284137 14 3 -9
2 1 2 0.4238 -11.374539736958825 -5.635098697312666 -4.0921665846705295 9 6 11
292 98 1 -0.8476 -8.65122588792533 -6.010765395033481 -4.375724417537423 5 2 6
1391 464 2 0.4238 -8.234072070953893 -1.9256956378431145 -5.470239977040868 -9 -16 -4
981 327 2 0.4238 -6.49618192665379 -0.6912468146499506 -4.9176242012396445 0 -7 -4
1202 401 2 0.4238 -9.52839089702822 -0.7329335453988861 -2.003897070822603 1 4 4
1201 401 1 -0.8476 -9.290347156972725 -1.700516065860148 -1.9194287136903565 1 4 4
338 113 2 0.4238 -10.711605475003246 -3.3526303667008186 -3.947760475078203 -8 15 -3
242 81 2 0.4238 -8.85342153664115 -4.474932681842559 -0.26852851065213734 2 4 9
463 155 1 -0.8476 -12.042606137316932 -3.0126114079971416 -0.619765170740898 29 -12 -17
446 149 2 0.4238 -7.4613710613941135 -4.836245715071964 -4.624135777943443 3 -4 8
1203 401 2 0.4238 -10.10126277026663 -2.221186351333575 -1.6523446936224921 1 4 4
241 81 1 -0.8476 -9.839433718651279 -4.641646340560647 -0.26996759068842735 2 4 9
447 149 2 0.4238 -6.762699060754473 -3.69275774791711 -5.557388395385115 3 -4 8
337 113 1 -0.8476 -11.202087799676768 -2.7887531501036698 -4.612203989719481 -8 15 -3
339 113 2 0.4238 -11.670462054225622 -2.0443109734841762 -4.136339556880769 -8 15 -3
465 155 2 0.4238 -11.315926162003919 -3.69540271714831 -0.5439498913193273 29 -12 -17
1392 464 2 0.4238 -8.617393355852048 -2.0566861399109992 -3.8882873746133573 -9 -16 -4
1390 464 1 -0.8476 -8.044360769069776 -1.5766521983201311 -4.552528742280675 -9 -16 -4
137 46 2 0.4238 -10.389001144276685 -4.652018166990283 -1.9441424402369236 9 -10 20
138 46 2 0.4238 -9.852954747479682 -5.458616882288944 -3.2589505660635325 9 -10 20
136 46 1 -0.8476 -10.529515696013194 -4.803539336023247 -2.9225660718029136 9 -10 20
928 310 1 -0.8476 -7.4562618198702895 -1.6102219402023064 -0.09629411914979258 -10 -4 -16
929 310 2 0.4238 -8.194232221384661 -1.545072673267427 -0.7679865601229281 -10 -4 -16
581 194 2 0.4238 -6.825536568719164 -4.452749759931548 -2.506302139046623 -18 -14 6
580 194 1 -0.8476 -7.251244985489962 -4.241072636663182 -1.6265404810983828 -18 -14 6
582 194 2 0.4238 -7.592080796218215 -3.301021221848698 -1.6387774889034272 -18 -14 6
930 310 2 0.4238 -6.68485053177943 -1.0472698371782538 -0.3929842021748282 -10 -4 -16
287 96 2 0.4238 -12.188066107047714 -3.2287368355456216 -5.883660663094676 24 6 9
890 297 2 0.4238 -5.4774651260980916 -3.2223854995020123 -3.6044049262674758 -23 -3 -2
1160 387 2 0.4238 -3.147460786207956 -2.092907972863049 -2.9137145311301165 -3 -10 -3
1159 387 1 -0.8476 -2.247147184371647 -1.675598448395462 -3.037422807672497 -3 -10 -3
1161 387 2 0.4238 -2.3193831616545655 -0.9108178324278331 -3.677663500482984 -3 -10 -3
719 240 2 0.4238 -4.557984961124246 -0.7214343063872626 -0.5608554947782594 5 -8 8
718 240 1 -0.8476 -5.258122737580624 -0.596506171613516 -1.2638601821171047 5 -8 8
709 237 1 -0.8476 -0.41514782329995903 -2.79872636580002 -5.19495176260253 -16 17 14
568 190 1 -0.8476 -1.5551342811698312 -2.9646950239744747 -0.4678786442986276 8 -3 12
710 237 2 0.4238 -1.137474472251803 -2.5680051985648156 -4.543010491421255 -16 17 14
711 237 2 0.4238 -0.24126335190952375 -3.7830512240684406 -5.165213491743505 -16 17 14
889 297 1 -0.8476 -4.780632200883745 -2.633081725505159 -3.195552335689026 -23 -3 -2
569 190 2 0.4238 -1.4523683716434235 -2.4875999535858604 -1.340710206512119 8 -3 12
1002 334 2 0.4238 -4.1713259478539335 -5.855863498189172 -5.109251316756184 2 -9 -27
570 190 2 0.4238 -2.141379174427186 -3.765184657107538 -0.5925731635219709 8 -3 12
1000 334 1 -0.8476 -3.569499102094774 -5.159931147107442 -4.717463036125536 2 -9 -27
1001 334 2 0.4238 -4.110670503622469 -4.361403816386456 -4.453828664695703 2 -9 -27
979 327 1 -0.8476 -5.774522399505468 -0.07979140126791506 -5.242194037579536 0 -7 -4
773 258 2 0.4238 -1.880953388888459 -5.852974494777631 -3.219374641979126 -4 7 7
153 51 2 0.4238 -2.4998547144166565 -0.4686416531510176 -5.950515726511461 2 11 -13
891 297 2 0.4238 -5.223937147202029 -1.921149959551144 -2.6508970300125743 -23 -3 -2
152 51 2 0.4238 -3.9060961765902658 -0.17670792764022814 -5.1733882638525905 2 11 -13
151 51 1 -0.8476 -2.909823793756363 -0.17473656924247116 -5.087057135758632 2 11 -13
59 20 2 0.4238 -0.05395941927198322 -5.544928556032076 -4.32349455368149 13 -2 -6
771 257 2 0.4238 -0.8978046340644603 -0.5664918716658978 -1.9279086779617352 8 11 2
839 280 2 0.4238 -10.49542073613758 -7.804203470223565 4.027002245179952 29 1 9
1402 468 1 -0.8476 -9.01260078794091 -12.131385569645179 5.354899571381052 -4 -5 13
1206 402 2 0.4238 -12.112553697344318 -6.241501156618929 0.664030743498202 9 4 5
1113 371 2 0.4238 -10.240356810091427 -6.891665749947325 6.163543911326444 -10 11 7
1307 436 2 0.4238 -8.73957391499477 -7.897275120669606 2.042994023733012 14 6 3
1308 436 2 0.4238 -7.8963041505247125 -9.2824882391712 1.8512954330212192 14 6 3
838 280 1 -0.8476 -10.22607353556729 -8.508277823650328 4.684076714339616 29 1 9
1306 436 1 -0.8476 -8.031777689327743 -8.354407166177609 1.5044123344082632 14 6 3
840 280 2 0.4238 -9.685141536841973 -9.208952817173033 4.218821314291487 29 1 9
1434 478 2 0.4238 -12.21652848085608 -11.738802821132406 2.9294759339096927 4 -15 7
1432 478 1 -0.8476 -11.894657523316816 -10.964313912287503 2.3848828519969825 4 -15 7
1404 468 2 0.4238 -9.057721134423204 -11.739494368074624 4.435986571467785 -4 -5 13
1332 444 2 0.4238 -11.683665372913298 -11.782758685785069 0.798599281791585 4 3 25
593 198 2 0.4238 -6.219023442839905 -10.441304450526438 1.899875040469155 9 -6 0
1362 454 2 0.4238 -7.276849041768155 -7.471433417792084 0.19169969020264155 14 3 -9
594 198 2 0.4238 -6.473598111587242 -12.018661169923792 2.237225441317465 9 -6 0
592 198 1 -0.8476 -6.819864322261251 -11.224184239596362 1.7383046753237021 9 -6 0
1014 338 2 0.4238 -7.865872586415739 -11.178473445833095 0.22951926602895867 13 0 -5
1100 367 2 0.4238 -8.453373278554697 -11.263248047520827 2.2305636699880935 -19 14 -1
1099 367 1 -0.8476 -9.113394239731944 -10.895629640750322 2.885731242298611 -19 14 -1
1101 367 2 0.4238 -10.038159865026845 -10.99414724415046 2.518146805872787 -19 14 -1
1173 391 2 0.4238 -3.8404218114614235 -10.496148136419947 3.1504572554164394 0 5 3
1184 395 2 0.4238 -2.097003160556879 -10.025666199200947 6.072790027636222 1 -2 -29
1172 391 2 0.4238 -4.509519608040369 -9.50271222183773 4.260439600634308 0 5 3
360 120 2 0.4238 -3.7339119514017423 -6.903197510328543 5.928794893023261 11 -16 2
1315 439 1 -0.8476 -0.7098942526059062 -11.310437515987713 0.8620632114026296 -4 4 6
813 271 2 0.4238 -1.8344465524246711 -10.861146803569536 3.8513548215868365 -1 -20 2
1171 391 1 -0.8476 -4.437189638463768 -9.704873382792705 3.283754016414333 0 5 3
1316 439 2 0.4238 -0.3067070982965756 -10.39540880747393 0.8487187096027817 -4 4 6
1273 425 1 -0.8476 -1.3642053934894847 -9.342922721805806 4.245203884824344 2 13 -10
1275 425 2 0.4238 -1.5434854580891866 -8.447294385625282 3.8381117479581466 2 13 -10
811 271 1 -0.8476 -2.289779748444685 -11.545077469925438 3.2813315196171065 -1 -20 2
1274 425 2 0.4238 -0.3931087406832745 -9.562871659313778 4.152418049768359 2 13 -10
812 271 2 0.4238 -1.8285526738688134 -11.601481408089727 2.395835138642685 -1 -20 2
800 267 2 0.4238 -2.951404998900774 -6.287432435311061 0.8999717393682527 -3 -7 13
525 175 2 0.4238 -1.6979538546856237 -6.603269085831474 2.553223175678328 4 14 -5
523 175 1 -0.8476 -1.1484729019835402 -6.919228165619191 3.326693346508492 4 14 -5
524 175 2 0.4238 -0.1809043534848982 -6.74942944836525 3.139623772167825 4 14 -5
1151 384 2 0.4238 -0.48452904826247334 -6.340783936095871 0.4470293342841636 1 7 11
1278 426 2 0.4238 -5.143711724115269 -7.608235288375616 0.7294396521065387 -12 -7 0
1277 426 2 0.4238 -4.313657560603836 -8.568455321406276 1.7568905173775562 -12 -7 0
1276 426 1 -0.8476 -4.273441294630807 -8.074496749361813 0.8883266898545212 -12 -7 0
1516 0 4 -1 -10.739092656463443 -6.081462793131495 2.2398390445381295 -8 -4 -6
572 191 2 0.4238 -12.157810200130001 -5.988226954452241 4.465552947905669 -9 -25 11
1030 344 1 -0.8476 -10.248419044946296 -3.3193927338675486 3.1657895426168494 -10 2 6
1032 344 2 0.4238 -10.425093582309614 -4.255682254340133 2.862204964560135 -10 2 6
1031 344 2 0.4238 -9.288887683006617 -3.0910178019680057 3.000987162935182 -10 2 6
1141 381 1 -0.8476 -12.136824836648302 -0.7367022897492976 5.59964550011261 7 1 -23
479 160 2 0.4238 -10.417211764100525 -3.1370969040094074 4.8346947329346985 14 9 -9
480 160 2 0.4238 -10.711292770754415 -3.971940257452502 6.206999609162844 14 9 -9
1142 381 2 0.4238 -12.260699413043215 -0.36602106944637214 4.679174974724544 7 1 -23
1143 381 2 0.4238 -11.558148281245387 -1.551096098022077 5.555922820866451 7 1 -23
284 95 2 0.4238 -6.8323411002198275 -0.03080497060845211 1.6246869381073985 -1 7 10
478 160 1 -0.8476 -10.551897604814318 -3.0625521858211897 5.822783209114169 14 9 -9
181 61 1 -0.8476 -6.515507756007339 -4.054493530484095 1.2479636376651797 0 12 -6
182 61 2 0.4238 -6.628710362878773 -3.663526508377828 2.1613887343140394 0 12 -6
1401 467 2 0.4238 -8.004491580933081 -1.6681393803874833 1.8108697714648194 5 6 -6
260 87 2 0.4238 -7.022046401032625 -1.3632308988473003 4.228469215290152 10 -13 0
259 87 1 -0.8476 -6.472839578761573 -1.5968396880995979 5.030849765218109 10 -13 0
183 61 2 0.4238 -6.613526447549038 -3.333279949159186 0.5622094607146852 0 12 -6
1399 467 1 -0.8476 -7.918711046636735 -1.2305601875230892 2.705957302910724 5 6 -6
402 134 2 0.4238 -11.769618194073464 -2.67624881652676 2.588262667297064 -19 1 -26
1400 467 2 0.4238 -8.706615958245026 -0.6350375393118011 2.862720486986838 5 6 -6
243 81 2 0.4238 -10.058533076361556 -5.350932792074455 0.40005037281807176 2 4 9
261 87 2 0.4238 -7.048773776519098 -1.5711498179562948 5.847951568280303 10 -13 0
464 155 2 0.4238 -12.402318169791661 -2.8062354696986755 0.2901973566339784 29 -12 -17
687 229 2 0.4238 -4.965004906884621 -2.3373514521062866 4.223913137785688 -11 5 -10
815 272 2 0.4238 -0.514951773144789 -3.49456438594226 1.1597932691119475 10 -2 3
686 229 2 0.4238 -3.3529372460153866 -2.243161972957763 4.466882204832098 -11 5 -10
1110 370 2 0.4238 -3.783453380516889 -3.1834869024450256 2.331254679251826 -3 10 4
685 229 1 -0.8476 -4.0678012871818225 -2.5717758724592823 3.849631742307297 -11 5 -10
113 38 2 0.4238 -2.7220666604097605 -1.7350010536219127 0.01994018553813781 2 -1 3
114 38 2 0.4238 -2.8884526767601493 -0.48050478810155184 1.0520363603768796 2 -1 3
112 38 1 -0.8476 -3.179549253294878 -0.8591231060311486 0.17344288688626364 2 -1 3
144 48 2 0.4238 -0.769955203977954 -1.985095249628845 4.864605557715413 3 7 0
538 180 1 -0.8476 -3.4312252900733284 -5.463606342084731 4.734520127909326 -13 -11 -5
540 180 2 0.4238 -3.753229595219274 -4.82260088371777 4.037784395415885 -13 -11 -5
539 180 2 0.4238 -2.8432276055348282 -6.151228031952651 4.30854994397715 -13 -11 -5
1109 370 2 0.4238 -4.82930623917868 -3.9926606135713136 1.3730806639133348 -3 10 4
1108 370 1 -0.8476 -3.871157137003852 -3.737846621269597 1.5036018625399414 -3 10 4
1003 335 1 -0.8476 -3.3639560307044505 -0.0154485735716694 3.1673916559871973 -16 -6 -6
1005 335 2 0.4238 -3.4538737972035047 -1.0077394147825647 3.2527678765166446 -16 -6 -6
801 267 2 0.4238 -2.4923559179960506 -4.72154529934252 0.962734001407032 -3 -7 13
799 267 1 -0.8476 -2.1763864618941184 -5.668202494137125 1.026130991700251 -3 -7 13
142 48 1 -0.8476 -1.6121528927988944 -2.2121285485472058 5.353660174568455 3 7 0
421 141 1 -0.8476 -6.6356480934265765 -11.671884313400433 10.515122262367493 -21 -11 -28
1112 371 2 0.4238 -10.795031168944334 -6.288564421940883 7.576085155292487 -10 11 7
946 316 1 -0.8476 -6.244289794795989 -6.43718194442678 9.423128257104645 -15 20 -2
162 54 2 0.4238 -12.232509050125808 -9.648629367518678 6.695232922916235 1 -17 25
161 54 2 0.4238 -10.617549644114554 -9.511974646755855 6.49548495225214 1 -17 25
160 54 1 -0.8476 -11.343293826184764 -9.747229992834605 7.141987741895969 1 -17 25
441 147 2 0.4238 -8.083164545196787 -10.632690365522366 8.13185396016823 -7 -8 10
440 147 2 0.4238 -8.342598732241978 -11.01850453601819 6.566443765591698 -7 -8 10
439 147 1 -0.8476 -7.741529992716211 -10.52849166019848 7.1978068895543625 -7 -8 10
864 288 2 0.4238 -10.451275511219901 -10.852779498155968 8.185309119002008 2 -13 21
453 151 2 0.4238 -8.363254658614704 -8.294460478358136 12.377368588408958 15 28 5
863 288 2 0.4238 -10.760022348163169 -11.008385875452188 9.781282078488578 2 -13 21
1509 0 4 -1 -10.71187321888197 -6.428364253403955 11.705247888967177 16 12 7
948 316 2 0.4238 -6.596863571472795 -6.517992139530607 10.355424855555702 -15 20 -2
437 146 2 0.4238 -8.677587384787934 -6.231996113970402 11.577054005047072 1 -9 8
862 288 1 -0.8476 -10.24865034281862 -11.383662341763701 9.008183317025543 2 -13 21
1435 479 1 -0.8476 -12.137851964734882 -10.940013689592785 11.144165606901518 4 17 -4
1437 479 2 0.4238 -12.362646989608198 -10.086308907395749 11.613921739738272 4 17 -4
796 266 1 -0.8476 -12.073420876184318 -6.581169608354657 8.851039882665452 -8 -11 6
1461 487 2 0.4238 -6.272744118521161 -8.244775891841137 9.15325104438284 -3 10 7
423 141 2 0.4238 -6.576095797433585 -10.864295985740565 9.928376861100114 -21 -11 -28
1183 395 1 -0.8476 -1.8927276063869254 -10.229889444503609 7.030171803390372 1 -2 -29
358 120 1 -0.8476 -3.625000404172731 -7.761348275255199 6.430522886859007 11 -16 2
1185 395 2 0.4238 -2.1274530856231912 -11.182178581899503 7.225274104203995 1 -2 -29
359 120 2 0.4238 -4.386311318687792 -8.3726963654001 6.214479719036655 11 -16 2
1506 0 3 1 -2.4137550080503924 -8.383670610691032 8.286725656333312 5 3 -5
947 316 2 0.4238 -5.255175298267121 -6.2928751334417665 9.452173719771531 -15 20 -2
958 320 1 -0.8476 -3.344893256959077 -6.376832562781977 9.384715470737733 -12 3 9
959 320 2 0.4238 -2.9251403714336544 -6.403024939795944 10.291984620327545 -12 3 9
763 255 1 -0.8476 -0.44662847540576855 -7.200700396883103 8.838875386620325 18 -10 -3
765 255 2 0.4238 -0.2280467081337978 -6.954159698189071 9.783044419750562 18 -10 -3
1377 459 2 0.4238 -0.3288296494118601 -11.56674383356968 10.32435589795565 -7 4 -6
1375 459 1 -0.8476 -0.19454195935703922 -11.132770929643554 11.21522614818536 -7 4 -6
1459 487 1 -0.8476 -5.921377181909326 -9.180753691707164 9.130836736466636 -3 10 7
179 60 2 0.4238 -6.0246555034558735 -10.394605388649644 6.382221360338514 -2 -13 9
944 315 2 0.4238 -1.874798885449957 -11.705252508188407 11.372190305633998 -10 11 -6
178 60 1 -0.8476 -5.044611246411047 -10.201358344754512 6.335483702357026 -2 -13 9
1239 413 2 0.4238 -4.465305495703027 -9.544615309080848 10.288995323110724 -14 -16 9
1237 413 1 -0.8476 -3.482854138473078 -9.652931937378497 10.440891251095612 -14 -16 9
1238 413 2 0.4238 -3.309417654776361 -10.53064440486428 10.887608433041718 -14 -16 9
1460 487 2 0.4238 -6.052799844545309 -9.564316661053038 8.216712533472856 -3 10 7
180 60 2 0.4238 -4.531314295185707 -11.051787270778282 6.450863387398799 -2 -13 9
1484 495 2 0.4238 -2.1248239606164905 -6.799463467496785 12.213240761002469 -4 -13 4
943 315 1 -0.8476 -2.795850086589283 -12.072142912769399 11.502848713845546 -10 11 -6
1485 495 2 0.4238 -0.6793808124863396 -6.24745879569504 11.691079314127107 -4 -13 4
1047 349 2 0.4238 -3.024875180515769 -8.844793019017022 11.977205549154592 -3 -1 -1
1111 371 1 -0.8476 -10.232466359491838 -6.097821361185458 6.771626525744962 -10 11 7
347 116 2 0.4238 -12.205275579181476 -2.5451409179205733 7.385165176676255 0 -2 -10
744 248 2 0.4238 -8.625147679903352 -5.4789470810438425 7.403676057347623 -8 -1 4
206 69 2 0.4238 -8.531289696890173 -0.51190326388841 11.929193770594866 36 6 -1
207 69 2 0.4238 -9.608100362967324 -1.1357317911179496 10.871845959172651 36 6 -1
205 69 1 -0.8476 -8.74705945495684 -0.6349728969505843 10.96052834523078 36 6 -1
438 146 2 0.4238 -7.4603921827032 -5.167302528941242 11.35004909876305 1 -9 8
398 133 2 0.4238 -8.527681360915258 -0.0191526339609549 9.213328206049708 -1 13 -3
399 133 2 0.4238 -8.471446012276651 -0.8316548921650995 7.797932405729332 -1 13 -3
742 248 1 -0.8476 -7.710552752109453 -5.15540637805815 7.64627253153847 -8 -1 4
743 248 2 0.4238 -7.283384635735606 -5.804611701901905 8.275617863273796 -8 -1 4
373 125 1 -0.8476 -8.31054450583466 -2.3969591135207473 7.148909181427639 -6 8 -5