LAMMPS data file via write_data, version 28 Oct 2021, timestep = 10000

1518 atoms
11 atom types
1000 bonds
1 bond types
500 angles
1 angle types

-12.452586490178014 12.452586490178014 xlo xhi
-12.452586490178014 12.452586490178014 ylo yhi
-12.452586490178014 12.452586490178014 zlo zhi

Masses

1 15.9994
2 1.00794
3 22.989769
4 35.453
5 60
6 60
7 60
8 15.9994
9 1.00794
10 22.989769
11 35.453

PairIJ Coeffs # lj/cut/coul/long

1 1 0.155354 3.169 9
1 2 0 0 9
1 3 0.234061 2.66425 9
1 4 0.044567 3.99975 9
1 5 0 0 9
1 6 0 0 9
1 7 0 0 9
1 8 0 0 9
1 9 0 0 9
1 10 0 0 9
1 11 0 0 9
2 2 0 0 9
2 3 0 1.07975 9
2 4 0 2.41525 9
2 5 0 0 9
2 6 0 0 9
2 7 0 0 9
2 8 0 0 9
2 9 0 0 9
2 10 0 0 9
2 11 0 0 9
3 3 0.352644 2.1595 9
3 4 0.067146 3.495 9
3 5 0 0 9
3 6 0 0 9
3 7 0 0 9
3 8 0 0 9
3 9 0 0 9
3 10 0 0 9
3 11 0 0 9
4 4 0.0127851 4.8305 9
4 5 0 0 9
4 6 0 0 9
4 7 0 0 9
4 8 0 0 9
4 9 0 0 9
4 10 0 0 9
4 11 0 0 9
5 5 0 0 9
5 6 0 0 9
5 7 0 0 9
5 8 0 0 9
5 9 0 0 9
5 10 0 0 9
5 11 0 0 9
6 6 0 0 9
6 7 0 0 9
6 8 0 0 9
6 9 0 0 9
6 10 0 0 9
6 11 0 0 9
7 7 0 0 9
7 8 0 0 9
7 9 0 0 9
7 10 0 0 9
7 11 0 0 9
8 8 0 0 9
8 9 0 0 9
8 10 0 0 9
8 11 0 0 9
9 9 0 0 9
9 10 0 0 9
9 11 0 0 9
10 10 0 0 9
10 11 0 0 9
11 11 0 0 9

Bond Coeffs # harmonic

1 100000 1

Angle Coeffs # harmonic

1 100000 109.47

Atoms # full

1427 476 2 0.4238 -7.725111865746666 -4.616650594455781 -5.536374382019487 -3 11 -16
1196 399 2 0.4238 -11.497474444823585 -12.17889048880031 -8.91707194109748 13 -17 -1
5 2 2 0.4238 -10.836705600916659 -7.368124146858433 -4.930315017789527 -11 18 -5
1276 426 1 -0.8476 -4.252263860367018 -5.791830898223206 -4.181362293555425 -12 -7 0
1229 410 2 0.4238 -8.956949433291472 -9.767519215853714 -10.708279462744212 15 -1 9
4 2 1 -0.8476 -11.196077402579876 -7.898888330913144 -5.697898737224912 -11 18 -5
1176 392 2 0.4238 -10.63963339555467 -9.636126318428555 -5.332505989963873 -8 -6 -9
641 214 2 0.4238 -6.661176846432807 -8.823357563382208 -8.80091332566795 -12 2 6
6 2 2 0.4238 -11.3588321542458 -7.2918172463788355 -6.475728508240403 -11 18 -5
1230 410 2 0.4238 -7.760878526531809 -10.419258452250897 -9.807506695902681 15 -1 9
642 214 2 0.4238 -6.733170192250481 -10.175562019674533 -7.888169587770345 -12 2 6
711 237 2 0.4238 -10.661276469192813 -5.04508152282992 -8.055600214764684 -16 17 14
786 262 2 0.4238 -10.969125586099723 -4.326100586757059 -4.326987763180046 6 21 22
1174 392 1 -0.8476 -10.777296357674116 -10.447991203403507 -4.765084066220684 -8 -6 -9
1078 360 1 -0.8476 -6.6246508442312955 -5.788896725366855 -5.384635169625007 15 -9 3
1228 410 1 -0.8476 -8.572971452010735 -10.620711457454343 -10.355197119242627 15 -1 9
1056 352 2 0.4238 -4.199348892908407 -5.959686727904367 -8.670435221994834 10 9 6
640 214 1 -0.8476 -6.460759332125537 -9.802753069258117 -8.775214576275928 -12 2 6
1079 360 2 0.4238 -6.907139684039343 -6.748036631159371 -5.3674941602628135 15 -9 3
1080 360 2 0.4238 -5.843262220172981 -5.660591069339026 -4.773887841646768 15 -9 3
465 155 2 0.4238 -7.968466151106963 -7.387970624911637 -7.089970816614948 29 -13 -16
174 58 2 0.4238 -12.338263767254489 -12.297385914735615 -7.057613622320427 -2 12 12
774 258 2 0.4238 -6.172255046106945 -4.705943554956384 -8.220241581281282 -4 8 7
463 155 1 -0.8476 -7.8294399094544715 -7.369830054315236 -8.080115132797703 29 -13 -16
773 258 2 0.4238 -6.501175960296749 -6.305420321704804 -8.235297882313667 -4 8 7
173 58 2 0.4238 -11.949704205049327 -11.31621340327645 -5.811393821607973 -2 12 12
772 258 1 -0.8476 -5.885685158427587 -5.5951461680986805 -8.576948536063076 -4 8 7
709 237 1 -0.8476 -11.011229287528693 -5.535730773356102 -7.2575778706266325 -16 17 14
616 206 1 -0.8476 -9.2620321773908 -7.807503921376422 -10.76416921171214 -5 5 -10
617 206 2 0.4238 -10.048563201197382 -7.192924284239175 -10.825029742806542 -5 5 -10
618 206 2 0.4238 -8.741568833246099 -7.768260106022997 -11.617176255907024 -5 5 -10
1009 337 1 -0.8476 -5.578321390381077 -11.868098479137696 -11.935802471952412 0 3 9
1011 337 2 0.4238 -5.476239270079946 -10.896849830255823 -11.720631773478033 0 3 9
538 180 1 -0.8476 -5.7270761654840445 -10.528875619848531 -5.103126216058625 -14 -10 -5
1127 376 2 0.4238 -5.2786453593300635 -9.40445021926853 -10.012317919614903 15 -3 15
710 237 2 0.4238 -10.984297066603355 -4.934873102272122 -6.458649005882688 -16 17 14
768 256 2 0.4238 -10.772441598089946 -4.408807815693521 -10.169488948670839 4 -3 8
758 253 2 0.4238 -8.389999150212464 -8.123077570262662 -4.873318875839356 2 -8 4
539 180 2 0.4238 -6.004789513580894 -11.359347033271925 -4.620181479370509 -14 -10 -5
759 253 2 0.4238 -7.1556680408651605 -9.107167576722526 -5.291332335143166 2 -8 4
907 303 1 -0.8476 -11.684191836791603 -10.121584670311655 -10.152418207301409 7 8 23
540 180 2 0.4238 -4.733729046902787 -10.52674938798682 -5.218451891891388 -14 -10 -5
908 303 2 0.4238 -10.783011013851567 -10.072587832205615 -9.721703053340336 7 8 23
909 303 2 0.4238 -11.582352418725934 -10.066147303824787 -11.14569499876813 7 8 23
645 215 2 0.4238 -11.650403013576337 -4.53385832429052 -12.321528168144383 -2 -2 22
341 114 2 0.4238 -5.5204373471478725 -6.547365589917224 -10.423935910738459 0 5 4
340 114 1 -0.8476 -4.848264072046219 -6.745830392041458 -11.137264736463116 0 5 4
644 215 2 0.4238 -12.225694038922878 -5.729672488872337 -11.36978760845722 -2 -2 22
643 215 1 -0.8476 -11.454332770780374 -5.113976948999993 -11.530919433166574 -2 -2 22
464 155 2 0.4238 -8.458842488291495 -8.012562653790894 -8.516910721814648 29 -13 -16
342 114 2 0.4238 -4.9494296584291355 -6.087368388045756 -11.883077401760817 0 5 4
757 253 1 -0.8476 -7.582234709698736 -8.217660126597794 -5.455224125650981 2 -8 4
1155 385 2 0.4238 -8.712175128486873 -12.316240681183448 -10.706605873493334 6 12 -27
1126 376 1 -0.8476 -4.881412604229699 -9.325049279772353 -10.926618077345692 15 -3 15
1128 376 2 0.4238 -4.757975571517198 -8.358997425088855 -11.153664670140007 15 -3 15
1051 351 1 -0.8476 -6.789622767677118 -6.803734237679293 2.832659302655811 -1 11 -21
1472 491 2 0.4238 -6.3805855903661035 -11.661670751491203 1.5343800058972636 2 0 -13
1384 462 1 -0.8476 -8.42875648352333 -8.872372924390106 1.592555629885812 -14 3 -6
1473 491 2 0.4238 -7.743731257927015 -11.547367508802884 2.4262937939681173 2 0 -13
1094 365 2 0.4238 -4.257456877347636 -6.163575288625912 0.16753669417930794 8 -7 11
1386 462 2 0.4238 -7.942729446518626 -8.203811381178282 2.155446634036428 -14 3 -6
229 77 1 -0.8476 -4.5992996106459705 -11.645060743283176 1.7614479380926724 -16 -14 17
1052 351 2 0.4238 -5.9704447542629 -6.267610174022764 2.6287926541850837 -1 11 -21
505 169 1 -0.8476 -4.361119396254013 -5.65249955152016 2.0066521089921157 4 -11 13
333 111 2 0.4238 -5.329478072649327 -7.4063908790387325 -1.8219416095849592 -11 2 -7
1053 351 2 0.4238 -7.568480199372369 -6.188661754216653 2.9555825048968067 -1 11 -21
1471 491 1 -0.8476 -7.3278886575783995 -11.970127599819753 1.6210659528912572 2 0 -13
691 231 1 -0.8476 -12.04407822395775 -11.430698259196411 0.8104647271333949 9 -9 -6
1083 361 2 0.4238 -11.83688638610085 -7.239382411159465 2.957233116900637 0 -10 -3
1081 361 1 -0.8476 -12.328766820334138 -7.184961773029897 3.8262182400600757 0 -10 -3
506 169 2 0.4238 -4.1920788874342545 -4.763257506095366 1.581543749059108 4 -11 13
331 111 1 -0.8476 -5.943283541439916 -7.616190861870227 -2.583039601439422 -11 2 -7
1275 425 2 0.4238 -10.626739424976757 -10.9779817932714 2.5012734275842163 2 13 -10
230 77 2 0.4238 -4.22392039997106 -10.759427094196504 2.0349191070920476 -16 -14 17
1273 425 1 -0.8476 -10.019930169125248 -10.481243629637998 3.1218190616314008 2 13 -10
332 111 2 0.4238 -5.4317595067732585 -7.586146038733056 -3.4418083158614188 -11 2 -7
1249 417 1 -0.8476 -6.364291250695676 -9.538459559566723 0.0014586721528448976 -5 19 12
1103 368 2 0.4238 -9.092067115422005 -6.726411395230516 -2.43083116849753 14 -6 8
914 305 2 0.4238 -6.017974072024065 -8.49347031900955 3.1484355723665267 10 6 7
915 305 2 0.4238 -4.8228953160297054 -9.247408319766649 3.9670355017422736 10 6 7
1222 408 1 -0.8476 -9.189585625269002 -4.265124003167875 3.264773477013158 9 -1 0
1274 425 2 0.4238 -9.479001049382543 -9.82063515674436 2.6012081948336867 2 13 -10
1251 417 2 0.4238 -6.272499695103894 -9.460429427530013 -0.9912793582563957 -5 19 12
913 305 1 -0.8476 -5.8033147624311825 -9.246872557845808 3.770005954656064 10 6 7
1250 417 2 0.4238 -5.534784137461024 -9.193850080805264 0.4410100575441138 -5 19 12
1175 392 2 0.4238 -10.508542469284341 -10.245901702093045 -3.8232907465768804 -8 -6 -9
70 24 1 -0.8476 -8.84689178513083 -12.166044465282637 -0.6944125411739908 -11 -3 -21
71 24 2 0.4238 -8.496979060795919 -12.128571984970963 0.2416430865311341 -11 -3 -21
1500 500 2 0.4238 -9.422910393567118 -11.90565978461999 -4.106671878679732 -7 15 -4
982 328 1 -0.8476 -9.426134930935174 -5.330199652272127 -1.3687007025597158 -3 0 13
501 167 2 0.4238 -10.620419990738343 -4.611066139368292 2.3228862589094437 -16 15 11
499 167 1 -0.8476 -11.388020067137223 -4.694067016275685 1.6873198269116578 -16 15 11
984 328 2 0.4238 -9.600214909312088 -4.3476436674152765 -1.4344540562974775 -3 0 13
1134 378 2 0.4238 -11.67867392217857 -8.054881621590296 0.6403478455949756 -4 6 -18
1104 368 2 0.4238 -7.751322668800383 -7.6245214189056245 -2.680919954639025 14 -6 8
692 231 2 0.4238 -11.46182565989397 -11.999431445180957 0.22945902995417278 9 -9 -6
693 231 2 0.4238 -12.05703331654054 -10.495713042026106 0.455954187076129 9 -9 -6
983 328 2 0.4238 -9.052577099464076 -5.542836501260865 -0.4657701590456771 -3 0 13
1459 487 1 -0.8476 -11.141162404329462 -5.836617664459454 -3.381668919308371 -3 10 8
500 167 2 0.4238 -11.272880703885468 -5.517253403108127 1.1313069101678703 -16 15 11
1461 487 2 0.4238 -12.12764849972246 -5.807758962735481 -3.2202505213361423 -3 10 8
109 37 1 -0.8476 -11.899400181733878 -9.165326098944458 -0.8169052113376232 -11 7 -10
1102 368 1 -0.8476 -8.74674300669679 -7.600093284834222 -2.773577131608631 14 -6 8
1133 378 2 0.4238 -10.152359650060015 -7.990730543393209 1.2174015094506156 -4 6 -18
1041 347 2 0.4238 -6.048476504711453 -12.157357654376625 -0.3194968663289899 -1 -2 6
111 37 2 0.4238 -11.315815364307294 -9.454998152380362 -1.575563302787069 -11 7 -10
668 223 2 0.4238 -9.134484221323927 -9.399282137509982 -2.404677528951492 2 -13 -9
1460 487 2 0.4238 -10.658191328213995 -5.7528624223922264 -2.5100225542115915 -3 10 8
667 223 1 -0.8476 -9.720407909792993 -10.207954541215932 -2.3518994160643647 2 -13 -9
1132 378 1 -0.8476 -11.108981669356382 -7.774737576669071 1.4130141847452773 -4 6 -18
669 223 2 0.4238 -9.405551039947571 -10.79984813679579 -1.609895005809042 2 -13 -9
883 295 1 -0.8476 -7.294943271319429 -4.810130949326024 0.6956110710371899 -4 -6 16
884 295 2 0.4238 -6.302901922163787 -4.73783233214505 0.7989072418809364 -4 -6 16
1385 462 2 0.4238 -7.823588907358968 -9.199976554482882 0.8669584578440848 -14 3 -6
947 316 2 0.4238 -7.961995720421886 -12.006191901714184 11.18571222285614 -15 19 -2
1433 478 2 0.4238 -10.480492730458156 -11.924058217298137 7.583246541080506 3 -14 8
1434 478 2 0.4238 -10.92389609573473 -11.01907126863053 8.868210985119767 3 -14 8
1432 478 1 -0.8476 -10.8314913878879 -11.951660673983348 8.51923864407349 3 -14 8
471 157 2 0.4238 -6.554150091153114 -10.027033352658462 10.533718307383324 3 -5 -7
411 137 2 0.4238 -7.49350371319427 -8.374616877123215 11.411847970747921 -5 -13 -6
410 137 2 0.4238 -7.239103176621536 -6.762299306185179 11.362309195225457 -5 -13 -6
854 285 2 0.4238 -8.41978900033201 -10.936917273827428 7.391774053234993 15 7 -19
409 137 1 -0.8476 -7.820097442057059 -7.486183156362675 11.734439393816178 -5 -13 -6
306 102 2 0.4238 -6.063499348847305 -4.748403766252818 10.948884816225984 8 -14 -1
1021 341 1 -0.8476 -4.958238274902053 -10.291840656731637 7.360493269982211 13 10 18
304 102 1 -0.8476 -5.475117851070135 -4.823675709430236 11.753983859192555 8 -14 -1
1383 461 2 0.4238 -9.831980120838379 -11.016026666611282 5.353467141067792 3 4 -18
743 248 2 0.4238 -7.986189127110927 -5.007667972563069 5.61997774594159 -8 -1 4
744 248 2 0.4238 -7.031352097522581 -5.203657184059274 6.930174790419418 -8 -1 4
535 179 1 -0.8476 -5.128378757920662 -9.006203812211687 11.245001266403719 4 -8 22
1022 341 2 0.4238 -4.9437372408166125 -9.398608536634407 7.809903386197011 13 10 18
1023 341 2 0.4238 -5.901528244308611 -10.617747281955587 7.296991675160321 13 10 18
537 179 2 0.4238 -4.218041208647758 -8.992376280291532 10.831313716865417 4 -8 22
470 157 2 0.4238 -7.750450887541865 -10.044025886299963 9.422269971130316 3 -5 -7
762 254 2 0.4238 -11.809877454149582 -4.648042919086325 7.273807244651259 -1 12 8
536 179 2 0.4238 -5.041605074724074 -9.054254487541328 12.240091589148264 4 -8 22
1381 461 1 -0.8476 -9.676395299655912 -11.80139061035384 5.952666685921127 3 4 -18
469 157 1 -0.8476 -7.521841636969719 -10.225963263881889 10.378659052479499 3 -5 -7
742 248 1 -0.8476 -7.172532948078229 -5.467345694079559 5.975931766360979 -8 -1 4
760 254 1 -0.8476 -11.393234508104399 -4.397831149071322 8.147790131288978 -1 12 8
761 254 2 0.4238 -11.81617097937837 -4.92811461535153 8.88261482736112 -1 12 8
855 285 2 0.4238 -7.747994762293868 -9.484138153216529 7.067942174596183 15 7 -19
1319 440 2 0.4238 -6.898817206624022 -11.001109201436268 4.453240897402434 -9 14 7
164 55 2 0.4238 -9.359013514084392 -8.258927468116578 5.3837712358606815 -7 -3 -2
964 322 1 -0.8476 -4.488317222899967 -11.988588388641636 9.722700935381436 7 -1 -8
990 330 2 0.4238 -7.467496470939807 -7.103770763557059 5.934446948086368 5 4 -11
1318 440 1 -0.8476 -7.062781465344001 -11.9766377312907 4.306602685191443 -9 14 7
966 322 2 0.4238 -4.821145014549729 -11.352992863788232 9.026075339202908 7 -1 -8
1441 481 1 -0.8476 -12.446199289838978 -5.029488755933603 5.612629599491001 13 -6 -2
165 55 2 0.4238 -10.251914873497178 -9.165835474340174 4.3605477503278145 -7 -3 -2
989 330 2 0.4238 -7.0305376782847535 -8.531597064367013 5.2732960684658785 5 4 -11
1512 0 4 -1 -6.564466436540754 -4.667197414414631 8.924593424944202 6 -2 -6
1292 431 2 0.4238 -9.907849067099743 -10.588686120293326 11.873829912595667 -8 -6 1
1442 481 2 0.4238 -12.439082762351358 -5.750695245660102 4.91991452560714 13 -6 -2
1291 431 1 -0.8476 -10.741691183725926 -10.164112895080468 12.22665701646439 -8 -6 1
863 288 2 0.4238 -11.663225175968774 -8.924000019888403 8.013981889528086 2 -13 21
163 55 1 -0.8476 -10.277204707416692 -8.413640840517147 5.019035575663587 -7 -3 -2
1068 356 2 0.4238 -5.4808888217635925 -6.123956183602331 5.186655307034975 0 5 -9
845 282 2 0.4238 -6.189854838990632 -6.880153010428612 8.758482890689322 -2 1 5
1066 356 1 -0.8476 -4.4975643641384995 -6.103860162478598 5.00578958276153 0 5 -9
846 282 2 0.4238 -5.280186225591493 -7.887151777289361 9.66688711221391 -2 1 5
844 282 1 -0.8476 -5.709251512270477 -7.75699536901632 8.773015989659807 -2 1 5
864 288 2 0.4238 -10.955586221754377 -8.669870653226274 9.463604987804537 2 -13 21
988 330 1 -0.8476 -7.743513360394803 -8.053446418355351 5.786210056554161 5 4 -11
1082 361 2 0.4238 -11.758098017812454 -7.560823492100601 4.5563607704972355 0 -10 -3
853 285 1 -0.8476 -7.670892722005594 -10.314615221068147 7.619672545778673 15 7 -19
1247 416 2 0.4238 -9.57715848429713 -7.43586626967696 11.033113759104427 -7 3 6
1248 416 2 0.4238 -11.139970957697294 -6.962783552256434 11.0096307735271 -7 3 6
1246 416 1 -0.8476 -10.50386404800184 -7.692369731580111 10.758403305791326 -7 3 6
1293 431 2 0.4238 -10.877137378121168 -9.277495884278347 11.784381096941342 -8 -6 1
862 288 1 -0.8476 -10.984701190723957 -9.268282118750417 8.662918107307185 2 -13 21
1010 337 2 0.4238 -5.870801736098965 -11.969898534307836 12.018510632848454 0 3 8
550 184 1 -0.8476 -8.64551659816148 -2.264091170594515 -11.647280829757642 -10 -17 -8
549 183 2 0.4238 -6.788096215760044 2.902586930848795 -11.095691859400516 8 23 -16
551 184 2 0.4238 -9.550204151202374 -2.2084250783036286 -12.069755634983515 -10 -17 -8
552 184 2 0.4238 -7.94515004904316 -2.284847538188231 -12.360792657193972 -10 -17 -8
225 75 2 0.4238 -5.0071011975215125 0.5396335136496919 -6.5654672955915245 6 9 -9
564 188 2 0.4238 -6.696154395234857 -0.9183363119359331 -4.45659830067343 6 -15 -7
562 188 1 -0.8476 -6.270715407597915 -1.8222048122292804 -4.411139529041396 6 -15 -7
133 45 1 -0.8476 -6.641082351395172 -3.0826595395252525 -7.857977959927987 16 15 -5
563 188 2 0.4238 -5.283390929497529 -1.7328691271955563 -4.542488947411327 6 -15 -7
1514 0 4 -1 -11.446929641279665 3.1964128780519445 -7.726601207447832 -2 -2 -11
1426 476 1 -0.8476 -8.108682857473077 -3.6947083068530837 -5.590586906784685 -3 11 -16
1200 400 2 0.4238 -12.085774332638566 -3.428221838910872 -8.780944290807152 -3 20 -12
135 45 2 0.4238 -6.386946787211604 -2.1154817336463285 -7.85293262143009 16 15 -5
134 45 2 0.4238 -7.269520827299505 -3.266113857056169 -7.102032859857018 16 15 -5
785 262 2 0.4238 -9.942613078348629 -3.6626103767900595 -5.409944124710539 6 21 22
800 267 2 0.4238 -7.067634317115901 0.2807668264986809 -10.828509854040695 -3 -7 12
1428 476 2 0.4238 -7.556851218649155 -3.0710151602993285 -5.036933656916505 -3 11 -16
547 183 1 -0.8476 -6.74426344293515 3.8927290315459047 -10.962498887001658 8 23 -16
784 262 1 -0.8476 -10.895097373217572 -3.7065445158110304 -5.108469423574055 6 21 22
1152 384 2 0.4238 -8.490436349724948 1.0113396446877765 -4.443747969249214 1 6 12
252 84 2 0.4238 -11.559209964680873 -2.4757681696302285 -6.169190768473786 10 3 12
250 84 1 -0.8476 -11.982758399034719 -1.6218568548867633 -6.471656588954665 10 3 12
1001 334 2 0.4238 -9.590622065456191 2.350644260340438 -8.490668743227626 3 -10 -26
14 5 2 0.4238 -10.93776033216598 -0.6525451792734085 -7.550962250315371 22 -19 -12
1000 334 1 -0.8476 -8.772059684488589 2.253279951081046 -9.0568127675012 3 -10 -26
767 256 2 0.4238 -9.79507236999459 -3.208580439272243 -9.648965052343241 4 -3 8
1059 353 2 0.4238 -6.358974623891101 -3.5765609731249164 -9.71676135814757 1 -18 16
766 256 1 -0.8476 -10.530148910856475 -3.83423463059189 -9.38769391334373 4 -3 8
1002 334 2 0.4238 -8.551674498701235 1.283331561516329 -9.160126114797665 3 -10 -26
1057 353 1 -0.8476 -5.97707847428407 -3.4950150219103016 -10.637385518091826 1 -18 16
1058 353 2 0.4238 -6.72015513968842 -3.3908986648547135 -11.298475588424315 1 -18 16
57 19 2 0.4238 -10.29906313511798 2.3541219431100497 -5.917313160720683 3 5 9
63 21 2 0.4238 -8.582387833584827 -1.090110961927456 -10.52813677204868 -2 -16 4
119 40 2 0.4238 -7.108120924687364 0.06614870175804377 -8.528206607893377 12 12 -13
1333 445 1 -0.8476 -9.726351341701646 3.3517690172822086 -11.604419912016782 -11 1 -3
55 19 1 -0.8476 -9.677398944365304 2.327713300202202 -5.134446986266419 3 5 9
56 19 2 0.4238 -9.352700733962418 3.2523544982776453 -4.935316204506003 3 5 9
1004 335 2 0.4238 -5.736500418456955 4.132231799438369 -12.3402280281843 -16 -5 -5
62 21 2 0.4238 -9.240769313054527 -0.39675055041858975 -9.20430646741952 -2 -16 4
575 192 2 0.4238 -4.498299897455268 -0.4610785809978619 -10.955117289270714 0 5 -5
61 21 1 -0.8476 -8.442862124715674 -0.41154449150927164 -9.806940973975905 -2 -16 4
801 267 2 0.4238 -6.4733897124588955 0.9000318606761493 -12.21779958314346 -3 -7 12
27 9 2 0.4238 -12.3817760693929 3.6295319832583672 -11.331174290690944 -4 -3 -15
13 5 1 -0.8476 -10.620581433515056 -0.09177143280340161 -8.315798046991521 22 -19 -12
26 9 2 0.4238 -12.161749562073524 4.124949278594059 -9.7907550056173 -4 -3 -15
15 5 2 0.4238 -11.203196096902237 0.7165727412744722 -8.400551374665325 22 -19 -12
799 267 1 -0.8476 -6.385039282875667 0.8968137361219881 -11.22169352479182 -3 -7 12
576 192 2 0.4238 -5.0783055791964165 -1.8915787040807466 -10.42219814653802 0 5 -5
118 40 1 -0.8476 -6.203145242818751 -0.2611708049584536 -8.256316670865488 12 12 -13
1335 445 2 0.4238 -9.524658239033712 2.6875946524621934 -10.884534083659853 -11 1 -3
120 40 2 0.4238 -5.6787350700528325 -0.5068491895048872 -9.071595253652877 12 12 -13
574 192 1 -0.8476 -4.406706635131915 -1.1696495782078493 -10.255417060783968 0 5 -5
741 247 2 0.4238 -6.397843432625981 -3.5325892857338275 -2.6271427905682323 21 -11 7
1223 408 2 0.4238 -8.507961237677499 -3.6953293928084445 2.8056814357973234 9 -1 0
80 27 2 0.4238 -8.995352378545237 0.276674129184002 1.1389752368254644 -2 -4 -14
519 173 2 0.4238 -4.4294818986279925 4.113105770429886 3.45150987742924 -3 -10 -27
1331 444 2 0.4238 -7.819188072295293 0.4562899676789822 -0.9987964185353775 3 2 25
1137 379 2 0.4238 -12.297470386021466 1.5190396330278197 -1.2137283113760855 13 10 -4
81 27 2 0.4238 -9.976723318321138 -0.9464626026987126 1.594594895579382 -2 -4 -14
1332 444 2 0.4238 -7.677548452414341 1.7707509127494276 -0.040218088580921574 3 2 25
1330 444 1 -0.8476 -8.244568391413342 0.976360431024025 -0.258106546632364 3 2 25
739 247 1 -0.8476 -6.472176283487232 -3.2339096838621106 -1.6756659064195176 21 -11 7
740 247 2 0.4238 -7.4311507531628616 -3.256926326459146 -1.3930327728820266 21 -11 7
1151 384 2 0.4238 -7.07237733441402 0.9995846332080234 -3.633987396961217 1 6 12
79 27 1 -0.8476 -9.366455320665224 -0.2244902810577667 1.9207423786783124 -2 -4 -14
427 143 1 -0.8476 -7.055099577476484 3.547062998230288 0.6281296287397939 12 0 5
544 182 1 -0.8476 -7.593235754813826 -2.3939268235183935 2.312761875480904 9 -1 0
428 143 2 0.4238 -7.71030852921302 3.747962896893842 1.3564039543487496 12 0 5
444 148 2 0.4238 -7.39881407640112 2.297348799968164 3.529939635831303 -1 11 3
1368 456 2 0.4238 -4.988834917231108 -1.1503513783233235 3.747827000936784 2 -2 -10
545 182 2 0.4238 -8.143684317273344 -1.5698439462669658 2.446691662130238 9 -1 0
546 182 2 0.4238 -6.699596486635576 -2.1412171665318844 1.9418305378967649 9 -1 0
478 160 1 -0.8476 -10.721631340292719 1.4029557088588493 -2.432562778123703 14 9 -9
308 103 2 0.4238 -10.973952049459974 3.5436760409867816 1.3573704268773081 2 21 18
442 148 1 -0.8476 -6.9161681592990485 1.5962026452892584 4.054811346206275 -1 11 3
479 160 2 0.4238 -10.474880119999195 0.44866093902871107 -2.601319218109966 14 9 -9
480 160 2 0.4238 -10.930025282015034 1.8520158793036217 -3.301447149852537 14 9 -9
443 148 2 0.4238 -6.199666892090917 1.189638782181948 3.4879118730221723 -1 11 3
938 313 2 0.4238 -10.368284043616404 -0.23280313712247036 3.4276077606871045 20 15 -25
1150 384 1 -0.8476 -7.906322679400939 0.4828122906575256 -3.8277012252249616 1 6 12
1366 456 1 -0.8476 -4.379325362298669 -0.37503644997048724 3.913441270183302 2 -2 -10
1224 408 2 0.4238 -9.51798889632697 -3.796490137328105 4.084881250134217 9 -1 0
1241 414 2 0.4238 -4.431526320961648 -0.7423268255069218 1.8846168503020078 -5 0 0
806 269 2 0.4238 -4.551191261055003 -2.740572963641199 0.5957357868679338 1 5 20
1287 429 2 0.4238 -10.727954369484703 2.2810749235776253 3.3150407063578164 2 18 16
805 269 1 -0.8476 -4.4926953217672025 -3.620805925817301 0.12476718230347927 1 5 20
807 269 2 0.4238 -5.182256529122515 -3.6583182138823833 -0.5985179330013004 1 5 20
1286 429 2 0.4238 -10.455399420334086 1.2512053881098204 2.0773720808767493 2 18 16
359 120 2 0.4238 -12.167174045694887 -1.7940316655835549 1.0790931734882463 11 -17 3
901 301 1 -0.8476 -9.887724719606835 -0.9963175545741034 -3.0383935847669132 9 15 -1
1285 429 1 -0.8476 -11.002381827864967 2.0289974504871164 2.3870377222225727 2 18 16
746 249 2 0.4238 -4.89755859280859 2.4007993117691644 -3.4318655114208294 -1 -5 -5
885 295 2 0.4238 -7.731668220155366 -4.006901636289186 1.100748913816041 -4 -6 16
360 120 2 0.4238 -11.209738094405171 -3.092875857088302 1.3302141901192357 11 -17 3
1389 463 2 0.4238 -10.128416462597867 3.389111701209279 -1.8725199749849057 -6 -2 18
1256 419 2 0.4238 -9.50138940106773 -2.0959988553180224 -1.883217165524453 -3 -1 0
1435 479 1 -0.8476 -8.163763926205053 3.927336150049559 3.2157284726561617 4 16 -3
1240 414 1 -0.8476 -5.065166757321525 -1.388697527021229 1.459472105056328 -5 0 0
329 110 2 0.4238 -5.951371587580918 -1.5120112725555561 -1.475861660144595 -4 8 6
330 110 2 0.4238 -5.664793054090253 -0.03830569419215024 -2.1183616163309047 -4 8 6
328 110 1 -0.8476 -5.708222950151178 -0.5643203800356993 -1.2689703032683894 -4 8 6
1437 479 2 0.4238 -8.963334710386846 3.9893393992149697 3.813127127921142 4 16 -3
1257 419 2 0.4238 -9.991559161724851 -2.4667474913494907 -0.37026650762533464 -3 -1 0
902 301 2 0.4238 -8.972778916571478 -0.7047191355333258 -3.3174776246350994 9 15 -1
358 120 1 -0.8476 -11.222874468354608 -2.1231019023870825 1.0864738939618537 11 -17 3
747 249 2 0.4238 -6.025252984830448 2.070154028224101 -2.2979693880823007 -1 -5 -5
1242 414 2 0.4238 -5.442542650483623 -0.9859424270904054 0.6255542084857826 -5 0 0
1255 419 1 -0.8476 -9.33805475270933 -2.6881729736250612 -1.0941070783766502 -3 -1 0
745 249 1 -0.8476 -5.639130634646022 1.781395445744547 -3.174080807553711 -1 -5 -5
903 301 2 0.4238 -10.34840190326061 -1.4333472638481695 -3.8109374779243215 9 15 -1
293 98 2 0.4238 -7.447691484214233 1.5780592539016833 10.779082089916816 4 1 5
294 98 2 0.4238 -5.875180213241841 1.2775532995028538 10.45714130637619 4 1 5
1316 439 2 0.4238 -10.044159673070142 1.3103927584502912 10.712803125712686 -3 4 5
955 319 1 -0.8476 -9.178220449250254 -3.143547542966216 9.066824574291527 -10 26 -12
1024 342 1 -0.8476 -12.186555478032325 1.5386996893498157 8.464591185565023 -10 2 -24
1317 439 2 0.4238 -10.688131821871039 -0.15962035877943848 11.01463542097487 -3 4 5
441 147 2 0.4238 -7.02358389349701 -1.1709427765120797 10.941674764484038 -7 -8 10
439 147 1 -0.8476 -6.860381077667242 -2.111349931867837 11.24007449630976 -7 -8 10
1518 0 4 -1 -4.176882588621568 1.461558561531044 9.074544186592753 0 0 3
440 147 2 0.4238 -6.775709125731289 -2.7050348498064807 10.439816979466002 -7 -8 10
957 319 2 0.4238 -8.330916638835683 -3.6735551681298517 9.10162702743845 -10 26 -12
1005 335 2 0.4238 -5.356058495984994 3.9540895636456845 10.98688565922091 -16 -5 -6
305 102 2 0.4238 -5.269100523871584 -3.9094306712602798 12.102919198214241 8 -14 -1
1025 342 2 0.4238 -11.758393148088476 1.5395324719014702 9.368316726008995 -10 2 -24
690 230 2 0.4238 -4.414913996307373 4.1378375643278 5.669771797000006 11 5 21
273 91 2 0.4238 -8.003923075572857 1.538983255071022 5.5754580319874165 0 16 -10
283 95 1 -0.8476 -9.435175627047693 -0.5549259057284512 8.168016788693105 -2 7 9
1016 339 2 0.4238 -4.6256605063878355 -2.2984361668782274 6.758080869502823 -13 -6 12
1315 439 1 -0.8476 -10.892381398762868 0.8114246525344058 10.890550414984986 -3 4 5
138 46 2 0.4238 -5.136401252242978 3.4599445554903454 8.96020413130671 8 -10 19
956 319 2 0.4238 -9.901877396177909 -3.6984691206916995 8.656427692927437 -10 26 -12
1043 348 2 0.4238 -9.177293071356514 2.959138223701455 11.530607780291103 -18 5 13
689 230 2 0.4238 -5.851286139724036 3.3997180656868444 5.4273752049312805 11 5 21
1017 339 2 0.4238 -5.733323511091247 -3.1638345376173103 7.589290673131835 -13 -6 12
271 91 1 -0.8476 -8.518714023938678 1.6774129667648232 6.421549687867554 0 16 -10
1042 348 1 -0.8476 -8.879987744637091 2.5657641216947535 10.66060225206807 -18 5 13
1044 348 2 0.4238 -8.963344636514641 3.2525106762513545 9.938470815517011 -18 5 13
954 318 2 0.4238 -11.052470564058414 -2.344060710146378 11.451624848479344 -2 -17 -8
272 91 2 0.4238 -8.017721129825176 1.2726663838355066 7.186552833579761 0 16 -10
467 156 2 0.4238 -9.78032237947062 2.731235329590998 5.765351838796963 9 4 -8
1003 335 1 -0.8476 -4.986191731647765 4.098657184642594 11.904677583364965 -16 -5 -6
292 98 1 -0.8476 -6.656728688159983 1.0173958386253368 11.024189240829163 4 1 5
285 95 2 0.4238 -9.72169467007258 -1.3329883505399902 8.727095337251527 -2 7 9
468 156 2 0.4238 -11.21229524879411 3.511486015009531 5.679304725776905 9 4 -8
466 156 1 -0.8476 -10.42879645295066 3.182386899945131 5.15217420253639 9 4 -8
606 202 2 0.4238 -8.602431559884403 3.9960961438795266 7.699996481504588 -2 -13 -3
1501 0 3 1 -11.00617453740732 0.5437716199697054 6.618617193595707 -4 0 7
1015 339 1 -0.8476 -5.599750462552048 -2.396626923162273 6.961920166173265 -13 -6 12
953 318 2 0.4238 -9.757047685741279 -2.2474658477490728 10.462033850651853 -2 -17 -8
952 318 1 -0.8476 -10.221652981411577 -1.8284028954049667 11.242143585358612 -2 -17 -8
192 64 2 0.4238 -11.863445620034266 1.8317226384246066 12.13840366640584 -12 1 -10
458 153 2 0.4238 -12.010332186311464 3.5897304874981906 7.844239597250198 -7 -4 -4
1098 366 2 0.4238 -7.167073044561456 -1.654050173814202 5.72259556836261 0 -36 -4
881 294 2 0.4238 -10.354652745489835 -2.5406881977462454 6.0859587521935445 -2 -7 7
882 294 2 0.4238 -9.213655313501459 -1.9154903026370604 5.099047398638785 -2 -7 7
1096 366 1 -0.8476 -7.695302823031464 -0.9615217209526516 5.231249816503574 0 -36 -4
880 294 1 -0.8476 -9.939535001919682 -2.598794469346494 5.178024768928019 -2 -7 7
582 194 2 0.4238 -12.103100566314717 -2.7102435832043987 7.542958700083485 -19 -14 6
1327 443 1 -0.8476 -6.6687278548760025 0.0871872255447137 7.8389828802417725 -7 3 5
1097 366 2 0.4238 -7.201724255346858 -0.09195385774474474 5.247836999625488 0 -36 -4
580 194 1 -0.8476 -12.158176084301273 -1.8545879232780926 7.028310022696768 -19 -14 6
284 95 2 0.4238 -8.475172521611437 -0.3460097857010691 8.354540780400793 -2 7 9
937 313 1 -0.8476 -10.978366400420994 -0.3671098994222177 4.208507758266478 20 15 -25
1328 443 2 0.4238 -6.293844899880138 -0.8001931252666896 7.57053978095913 -7 3 5
939 313 2 0.4238 -10.84333958898004 -1.2844486875283625 4.583075388636981 20 15 -25
1329 443 2 0.4238 -5.965613090730207 0.6160517759544675 8.314351318060734 -7 3 5
548 183 2 0.4238 -7.636170805529009 4.228031628459721 -10.65899192691733 8 23 -16
900 300 2 0.4238 -10.7206261507156 10.496825752927371 -6.5660716956012815 15 5 -8
1419 473 2 0.4238 -7.213940186110989 11.692280259497192 -4.802674219517417 -3 13 -4
200 67 2 0.4238 -9.688521539505432 5.578315813098882 -5.695243861740717 3 -1 -9
899 300 2 0.4238 -9.800980018522937 11.197144646747805 -5.412579525414595 15 5 -8
795 265 2 0.4238 -8.66598528959996 5.774534819197505 -8.943116426317314 -7 23 -4