
group   solvent type 1
5002 atoms in group solvent
group   water   empty
0 atoms in group water
group   ions    type 2 3
190 atoms in group ions
group   wall    type 4 5
0 atoms in group wall
group   flying  type 6 7 8
0 atoms in group flying
group   eq_run  union solvent ions flying
5192 atoms in group eq_run
            
######################################################################
pair_style   lj/cut/coul/long 2.500000 3.500000
kspace_style pppm 0.0001

# LJ (neq? False)
# real lj particles
pair_coeff  * *         1.  1.  2.5   # solvent + ions
pair_coeff  4*5 4*5     0   0   2.5   # wall atoms

        
pair_modify  tail no shift yes mix arithmetic # LB mixing rule
neigh_modify delay 2 every 1 check yes page 500000 one 50000
######################################################################
timestep 0.005000
thermo 2000
fix  eqmd   eq_run nvt temp 1.000000 1.000000 0.500000
run 200 # (neq? False) MD run
PPPM initialization ...
  using 12-bit tables for long-range coulomb (../kspace.cpp:340)
  G vector (1/distance) = 0.80564388
  grid = 36 36 36
  stencil order = 5
  estimated absolute RMS force accuracy = 7.8120263e-05
  estimated relative force accuracy = 7.8120263e-05
  using single precision KISS FFT
  3d grid and FFT values/proc = 4913 2592
Per MPI rank memory allocation (min/avg/max) = 5.425 | 5.447 | 5.490 Mbytes
Step Temp Atoms Density TotEng PotEng KinEng E_coul E_vdwl E_long Enthalpy Press 
    1600     0.999258     5192     0.750951 -15680.998762 -23461.718146  7780.719384   -70.720419 -23086.172261  -304.825466 -9170.692605     0.941626 
    1800     1.002720     5192     0.750951 -15536.835903 -23344.516752  7807.680849   -64.023301 -22983.120290  -297.373161 -8640.441413     0.997468 
Loop time of 0.586811 on 27 procs for 200 steps with 5192 atoms

Performance: 147236.427 tau/day, 340.825 timesteps/s
92.7% CPU use with 27 MPI tasks x no OpenMP threads

MPI task timing breakdown:
Section |  min time  |  avg time  |  max time  |%varavg| %total
---------------------------------------------------------------
Pair    | 0.11519    | 0.18467    | 0.21895    |   7.4 | 31.47
Kspace  | 0.30951    | 0.34495    | 0.41212    |   5.3 | 58.78
Neigh   | 0.016096   | 0.023252   | 0.026891   |   2.1 |  3.96
Comm    | 0.025029   | 0.028016   | 0.036753   |   2.4 |  4.77
Output  | 5.1014e-05 | 5.7082e-05 | 0.00018463 |   0.0 |  0.01
Modify  | 0.0028915  | 0.0038758  | 0.0052744  |   1.0 |  0.66
Other   |            | 0.00199    |            |       |  0.34

Nlocal:        192.296 ave         205 max         183 min
Histogram: 4 2 3 3 4 3 5 2 0 1
Nghost:        1840.93 ave        1879 max        1804 min
Histogram: 2 1 1 5 5 7 2 1 1 2
Neighs:        16452.9 ave       17574 max       15346 min
Histogram: 3 1 4 3 3 2 3 4 1 3

Total # of neighbors = 444228
Ave neighs/atom = 85.560092
Neighbor list builds = 28
Dangerous builds = 0
unfix    eqmd

group   solvent type 1
5002 atoms in group solvent
group   water   empty
0 atoms in group water
group   ions    type 2 3
190 atoms in group ions
group   wall    type 4 5
0 atoms in group wall
group   flying  type 6 7 8
0 atoms in group flying
group   eq_run  union solvent ions flying
5192 atoms in group eq_run
            
######################################################################
pair_style   lj/cut/coul/long 2.500000 3.500000
kspace_style pppm 0.0001

# LJ (neq? False)
# real lj particles
pair_coeff  * *         1.  1.  2.5   # solvent + ions
pair_coeff  4*5 4*5     0   0   2.5   # wall atoms

        
pair_modify  tail no shift yes mix arithmetic # LB mixing rule
neigh_modify delay 2 every 1 check yes page 500000 one 50000
######################################################################
# shake is off; should be a dummy run
timestep 0.005000
thermo 2000
fix  eqmd   eq_run nvt temp 1.000000 1.000000 0.500000
run 0 # (neq? False) MD run
PPPM initialization ...
  using 12-bit tables for long-range coulomb (../kspace.cpp:340)
  G vector (1/distance) = 0.80564388
  grid = 36 36 36
  stencil order = 5
  estimated absolute RMS force accuracy = 7.8120263e-05
  estimated relative force accuracy = 7.8120263e-05
  using single precision KISS FFT
  3d grid and FFT values/proc = 4913 2592
Per MPI rank memory allocation (min/avg/max) = 5.425 | 5.447 | 5.490 Mbytes
Step Temp Atoms Density TotEng PotEng KinEng E_coul E_vdwl E_long Enthalpy Press 
    1800     1.002720     5192     0.750951 -15536.835903 -23344.516752  7807.680849   -64.023301 -22983.120290  -297.373161 -8640.441413     0.997468 
Loop time of 2.99374e-06 on 27 procs for 0 steps with 5192 atoms

0.0% CPU use with 27 MPI tasks x no OpenMP threads

MPI task timing breakdown:
Section |  min time  |  avg time  |  max time  |%varavg| %total
---------------------------------------------------------------
Pair    | 0          | 0          | 0          |   0.0 |  0.00
Kspace  | 0          | 0          | 0          |   0.0 |  0.00
Neigh   | 0          | 0          | 0          |   0.0 |  0.00
Comm    | 0          | 0          | 0          |   0.0 |  0.00
Output  | 0          | 0          | 0          |   0.0 |  0.00
Modify  | 0          | 0          | 0          |   0.0 |  0.00
Other   |            | 2.994e-06  |            |       |100.00

Nlocal:        192.296 ave         206 max         178 min
Histogram: 1 0 4 2 3 6 6 4 0 1
Nghost:        1842.56 ave        1881 max        1806 min
Histogram: 1 1 1 9 2 6 4 0 0 3
Neighs:        16455.1 ave       17451 max       14917 min
Histogram: 1 2 1 1 2 5 3 6 1 5

Total # of neighbors = 444288
Ave neighs/atom = 85.571649
Neighbor list builds = 0
Dangerous builds = 0
unfix    eqmd
# selected_velocity_lj 158 lj-solvent vel 0.943286 -0.287659 -0.718899
group widom_test id  158  # select_molecule
1 atoms in group widom_test
set atom 158 type 6
Setting atom values ...
  1 settings made for type
run 0 post no # done selecting a flying molecule
WARNING: No fixes defined, atoms won't move (../verlet.cpp:55)
PPPM initialization ...
  using 12-bit tables for long-range coulomb (../kspace.cpp:340)
  G vector (1/distance) = 0.80564388
  grid = 36 36 36
  stencil order = 5
  estimated absolute RMS force accuracy = 7.8120263e-05
  estimated relative force accuracy = 7.8120263e-05
  using single precision KISS FFT
  3d grid and FFT values/proc = 4913 2592
Per MPI rank memory allocation (min/avg/max) = 5.425 | 5.447 | 5.490 Mbytes
Step Temp Atoms Density TotEng PotEng KinEng E_coul E_vdwl E_long Enthalpy Press 
    1800     1.002720     5192     0.750951 -15536.835903 -23344.516752  7807.680849   -64.023301 -22983.120290  -297.373161 -8640.441413     0.997468 
Loop time of 3.30044e-06 on 27 procs for 0 steps with 5192 atoms

group noneq_run_rigid    intersect   all         water               # select_lj no selection
0 atoms in group noneq_run_rigid
group noneq_run          subtract    all         noneq_run_rigid     # select_lj no selection
5192 atoms in group noneq_run
run 0 post no # mom rev random number
WARNING: No fixes defined, atoms won't move (../verlet.cpp:55)
PPPM initialization ...
  using 12-bit tables for long-range coulomb (../kspace.cpp:340)
  G vector (1/distance) = 0.80564388
  grid = 36 36 36
  stencil order = 5
  estimated absolute RMS force accuracy = 7.8120263e-05
  estimated relative force accuracy = 7.8120263e-05
  using single precision KISS FFT
  3d grid and FFT values/proc = 4913 2592
Per MPI rank memory allocation (min/avg/max) = 5.425 | 5.447 | 5.490 Mbytes
Step Temp Atoms Density TotEng PotEng KinEng E_coul E_vdwl E_long Enthalpy Press 
    1800     1.002720     5192     0.750951 -15536.835903 -23344.516752  7807.680849   -64.023301 -22983.120290  -297.373161 -8640.441413     0.997468 
Loop time of 3.09326e-06 on 27 procs for 0 steps with 5192 atoms

run 0 post no # momentum reversal applied
WARNING: No fixes defined, atoms won't move (../verlet.cpp:55)
PPPM initialization ...
  using 12-bit tables for long-range coulomb (../kspace.cpp:340)
  G vector (1/distance) = 0.80564388
  grid = 36 36 36
  stencil order = 5
  estimated absolute RMS force accuracy = 7.8120263e-05
  estimated relative force accuracy = 7.8120263e-05
  using single precision KISS FFT
  3d grid and FFT values/proc = 4913 2592
Per MPI rank memory allocation (min/avg/max) = 5.425 | 5.447 | 5.490 Mbytes
Step Temp Atoms Density TotEng PotEng KinEng E_coul E_vdwl E_long Enthalpy Press 
    1800     1.002720     5192     0.750951 -15536.835903 -23344.516752  7807.680849   -64.023301 -22983.120290  -297.373161 -8640.441413     0.997468 
Loop time of 3.10637e-06 on 27 procs for 0 steps with 5192 atoms

######################################################################
pair_style   lj/cut/coul/long/neq 2.500000 3.500000 1800 200 1.000000 5 0 0 1.000000 1.000000 11 1.000000
kspace_style pppm 0.0001

# LJ (neq? True)
# real lj particles
pair_coeff  * *         1.  1.  2.5   # solvent + ions
pair_coeff  4*5 4*5     0   0   2.5   # wall atoms

        
pair_modify  tail no shift yes mix arithmetic # LB mixing rule
neigh_modify delay 2 every 1 check yes page 500000 one 50000
######################################################################
timestep 0.010000
fix  eqmd  noneq_run           nve                 # nve for non-rigid
run 200 # (neq? True) MD run
PPPM initialization ...
  using 12-bit tables for long-range coulomb (../kspace.cpp:340)
  G vector (1/distance) = 0.80564388
  grid = 36 36 36
  stencil order = 5
  estimated absolute RMS force accuracy = 7.8120263e-05
  estimated relative force accuracy = 7.8120263e-05
  using single precision KISS FFT
  3d grid and FFT values/proc = 4913 2592
Neighbor list info ...
  update every 1 steps, delay 2 steps, check yes
  max neighbors/atom: 50000, page size: 500000
  master list distance cutoff = 3.8
  ghost atom cutoff = 3.8
  binsize = 1.9, bins = 11 11 11
  1 neighbor lists, perpetual/occasional/extra = 1 0 0
  (1) pair lj/cut/coul/long/neq, perpetual
      attributes: half, newton on
      pair build: half/bin/atomonly/newton
      stencil: half/bin/3d
      bin: standard
Per MPI rank memory allocation (min/avg/max) = 5.424 | 5.447 | 5.490 Mbytes
Step Temp Atoms Density TotEng PotEng KinEng E_coul E_vdwl E_long Enthalpy Press 
    1800     1.002720     5192     0.750951 -15536.835903 -23344.516752  7807.680849   -64.023301 -22983.120290  -297.373161 -8640.441413     0.997468 
    2000     1.000209     5192     0.750951 -15531.933328 -23320.060440  7788.127112   -70.965256 -22945.413553  -303.681630 -8122.005842     1.071744 
Loop time of 0.611643 on 27 procs for 200 steps with 5192 atoms

Performance: 282517.908 tau/day, 326.988 timesteps/s
93.1% CPU use with 27 MPI tasks x no OpenMP threads

MPI task timing breakdown:
Section |  min time  |  avg time  |  max time  |%varavg| %total
---------------------------------------------------------------
Pair    | 0.12174    | 0.19106    | 0.22024    |   7.4 | 31.24
Kspace  | 0.31263    | 0.34275    | 0.41614    |   5.8 | 56.04
Neigh   | 0.029996   | 0.042384   | 0.047831   |   2.7 |  6.93
Comm    | 0.028595   | 0.031293   | 0.039736   |   2.2 |  5.12
Output  | 5.7277e-05 | 6.8328e-05 | 0.0001961  |   0.0 |  0.01
Modify  | 0.00075458 | 0.0011158  | 0.0014096  |   0.5 |  0.18
Other   |            | 0.002969   |            |       |  0.49

Nlocal:        192.296 ave         204 max         182 min
Histogram: 2 1 3 3 7 5 1 2 2 1
Nghost:        1849.70 ave        1877 max        1815 min
Histogram: 3 0 2 3 3 3 4 1 6 2
Neighs:        16470.0 ave       18082 max       14880 min
Histogram: 1 2 4 2 3 7 3 2 1 2

Total # of neighbors = 444691
Ave neighs/atom = 85.649268
Neighbor list builds = 51
Dangerous builds = 0
unfix    eqmd
run 0 post no # momentum reversal applied
WARNING: No fixes defined, atoms won't move (../verlet.cpp:55)
PPPM initialization ...
  using 12-bit tables for long-range coulomb (../kspace.cpp:340)
  G vector (1/distance) = 0.80564388
  grid = 36 36 36
  stencil order = 5
  estimated absolute RMS force accuracy = 7.8120263e-05
  estimated relative force accuracy = 7.8120263e-05
  using single precision KISS FFT
  3d grid and FFT values/proc = 4913 2592
Per MPI rank memory allocation (min/avg/max) = 5.425 | 5.447 | 5.490 Mbytes
Step Temp Atoms Density TotEng PotEng KinEng E_coul E_vdwl E_long Enthalpy Press 
    2000     1.000209     5192     0.750951 -15531.933329 -23320.060441  7788.127112   -70.965256 -22945.413553  -303.681632 -8122.005844     1.071744 
Loop time of 2.66696e-06 on 27 procs for 0 steps with 5192 atoms


group   solvent type 1
5002 atoms in group solvent
group   water   empty
0 atoms in group water
group   ions    type 2 3
190 atoms in group ions
group   wall    type 4 5
0 atoms in group wall
group   flying  type 6 7 8
1 atoms in group flying
group   eq_run  union solvent ions flying
5192 atoms in group eq_run
            
######################################################################
pair_style   lj/cut/coul/long 2.500000 3.500000
kspace_style pppm 0.0001

# LJ (neq? False)
# real lj particles
pair_coeff  * *         1.  1.  2.5   # solvent + ions
pair_coeff  4*5 4*5     0   0   2.5   # wall atoms

        
pair_modify  tail no shift yes mix arithmetic # LB mixing rule
neigh_modify delay 2 every 1 check yes page 500000 one 50000
######################################################################
# dealing with ideal flying particles: force field=simple_lj

# Non-interacting flying lj molecule (trial deletion)
# real lj particles
pair_coeff  * *         1.  1.  2.5   # solvent + ions
pair_coeff  4*5 4*5     0   0   2.5   # wall atoms
# flying particles
pair_coeff  * 6         0   0   2.5   # flying solvent  non-interacting
pair_coeff  * 7         0   0   2.5   # flying cation   non-interacting
pair_coeff  * 8         0   0   2.5   # flying anion    non-interacting

# flying solvetn or ions
set type 6  charge 0.                       # non-interacting
Setting atom values ...
  1 settings made for charge
set type 7  charge 0.                       # non-interacting
Setting atom values ...
  0 settings made for charge
set type 8  charge 0.                       # non-interacting
Setting atom values ...
  0 settings made for charge
        
run 0 post no # making flying moelcule non-interacting
WARNING: No fixes defined, atoms won't move (../verlet.cpp:55)
PPPM initialization ...
  using 12-bit tables for long-range coulomb (../kspace.cpp:340)
  G vector (1/distance) = 0.80564388
  grid = 36 36 36
  stencil order = 5
  estimated absolute RMS force accuracy = 7.8120263e-05
  estimated relative force accuracy = 7.8120263e-05
  using single precision KISS FFT
  3d grid and FFT values/proc = 4913 2592
Neighbor list info ...
  update every 1 steps, delay 2 steps, check yes
  max neighbors/atom: 50000, page size: 500000
  master list distance cutoff = 3.8
  ghost atom cutoff = 3.8
  binsize = 1.9, bins = 11 11 11
  1 neighbor lists, perpetual/occasional/extra = 1 0 0
  (1) pair lj/cut/coul/long, perpetual
      attributes: half, newton on
      pair build: half/bin/atomonly/newton
      stencil: half/bin/3d
      bin: standard
Per MPI rank memory allocation (min/avg/max) = 5.425 | 5.447 | 5.490 Mbytes
Step Temp Atoms Density TotEng PotEng KinEng E_coul E_vdwl E_long Enthalpy Press 
    2000     1.000209     5192     0.750951 -15527.139900 -23315.267012  7788.127112   -70.965256 -22940.620124  -303.681632 -8112.606815     1.072410 
Loop time of 2.75567e-06 on 27 procs for 0 steps with 5192 atoms

# done post_propagate after NEMD
set type 6 type 1
Setting atom values ...
  1 settings made for type
run 0 post no # lj type change (reject_delete)
WARNING: No fixes defined, atoms won't move (../verlet.cpp:55)
PPPM initialization ...
  using 12-bit tables for long-range coulomb (../kspace.cpp:340)
  G vector (1/distance) = 0.80564388
  grid = 36 36 36
  stencil order = 5
  estimated absolute RMS force accuracy = 7.8120263e-05
  estimated relative force accuracy = 7.8120263e-05
  using single precision KISS FFT
  3d grid and FFT values/proc = 4913 2592
Per MPI rank memory allocation (min/avg/max) = 5.425 | 5.447 | 5.490 Mbytes
Step Temp Atoms Density TotEng PotEng KinEng E_coul E_vdwl E_long Enthalpy Press 
    2000     1.000209     5192     0.750951 114416.185750 106628.058638  7788.127112   -70.965256 107002.705526  -303.681632 643142.821581    76.473016 
Loop time of 2.73926e-06 on 27 procs for 0 steps with 5192 atoms

set atom 158 charge 0.000000
Setting atom values ...
  1 settings made for charge
run 0 post no # charge return (reject_delete)
WARNING: No fixes defined, atoms won't move (../verlet.cpp:55)
PPPM initialization ...
  using 12-bit tables for long-range coulomb (../kspace.cpp:340)
  G vector (1/distance) = 0.80564388
  grid = 36 36 36
  stencil order = 5
  estimated absolute RMS force accuracy = 7.8120263e-05
  estimated relative force accuracy = 7.8120263e-05
  using single precision KISS FFT
  3d grid and FFT values/proc = 4913 2592
Per MPI rank memory allocation (min/avg/max) = 5.425 | 5.447 | 5.490 Mbytes
Step Temp Atoms Density TotEng PotEng KinEng E_coul E_vdwl E_long Enthalpy Press 
    2000     1.000209     5192     0.750951 114416.185750 106628.058638  7788.127112   -70.965256 107002.705526  -303.681632 643142.821581    76.473016 
Loop time of 2.9867e-06 on 27 procs for 0 steps with 5192 atoms

run 0 post no # return_position back to old
WARNING: No fixes defined, atoms won't move (../verlet.cpp:55)
PPPM initialization ...
  using 12-bit tables for long-range coulomb (../kspace.cpp:340)
  G vector (1/distance) = 0.80564388
  grid = 36 36 36
  stencil order = 5
  estimated absolute RMS force accuracy = 7.8120263e-05
  estimated relative force accuracy = 7.8120263e-05
  using single precision KISS FFT
  3d grid and FFT values/proc = 4913 2592
Per MPI rank memory allocation (min/avg/max) = 5.425 | 5.447 | 5.490 Mbytes
Step Temp Atoms Density TotEng PotEng KinEng E_coul E_vdwl E_long Enthalpy Press 
    2000     1.002720     5192     0.750951 -15536.835903 -23344.516752  7807.680849   -64.023301 -22983.120290  -297.373160 -8640.441413     0.997468 
Loop time of 2.81726e-06 on 27 procs for 0 steps with 5192 atoms

group widom_test         delete
group noneq_run          delete
group noneq_run_rigid    delete
reset_timestep 1800

group   solvent delete
group   water   delete
group   ions    delete
group   wall    delete
group   flying  delete
group   eq_run  delete
        
write_data restart_after_MC_8.data pair ij
System init for write_data ...
PPPM initialization ...
  using 12-bit tables for long-range coulomb (../kspace.cpp:340)
  G vector (1/distance) = 0.80564388
  grid = 36 36 36
  stencil order = 5
  estimated absolute RMS force accuracy = 7.8120263e-05
  estimated relative force accuracy = 7.8120263e-05
  using single precision KISS FFT
  3d grid and FFT values/proc = 4913 2592
log logfile_hneqMDMC.9
