
group   solvent type 1
5002 atoms in group solvent
group   water   empty
0 atoms in group water
group   ions    type 2 3
190 atoms in group ions
group   wall    type 4 5
0 atoms in group wall
group   flying  type 6 7 8
0 atoms in group flying
group   eq_run  union solvent ions flying
5192 atoms in group eq_run
            
######################################################################
pair_style   lj/cut/coul/long 2.500000 3.500000
kspace_style pppm 0.0001

# LJ (neq? False)
# real lj particles
pair_coeff  * *         1.  1.  2.5   # solvent + ions
pair_coeff  4*5 4*5     0   0   2.5   # wall atoms

        
pair_modify  tail no shift yes mix arithmetic # LB mixing rule
neigh_modify delay 2 every 1 check yes page 500000 one 50000
######################################################################
timestep 0.005000
thermo 2000
fix  eqmd   eq_run nvt temp 1.000000 1.000000 0.500000
run 200 # (neq? False) MD run
PPPM initialization ...
  using 12-bit tables for long-range coulomb (../kspace.cpp:340)
  G vector (1/distance) = 0.80564388
  grid = 36 36 36
  stencil order = 5
  estimated absolute RMS force accuracy = 7.8120263e-05
  estimated relative force accuracy = 7.8120263e-05
  using single precision KISS FFT
  3d grid and FFT values/proc = 4913 2592
Per MPI rank memory allocation (min/avg/max) = 5.425 | 5.447 | 5.490 Mbytes
Step Temp Atoms Density TotEng PotEng KinEng E_coul E_vdwl E_long Enthalpy Press 
     200     1.012158     5192     0.750951 -15460.751944 -23341.919742  7881.167798   -63.841606 -22979.919045  -298.159092 -8335.809997     1.030525 
     400     0.989243     5192     0.750951 -15733.703159 -23436.445745  7702.742586   -66.285735 -23070.115537  -300.044473 -9213.227602     0.943097 
Loop time of 0.589308 on 27 procs for 200 steps with 5192 atoms

Performance: 146612.749 tau/day, 339.381 timesteps/s
92.5% CPU use with 27 MPI tasks x no OpenMP threads

MPI task timing breakdown:
Section |  min time  |  avg time  |  max time  |%varavg| %total
---------------------------------------------------------------
Pair    | 0.11469    | 0.1845     | 0.21874    |   7.4 | 31.31
Kspace  | 0.3136     | 0.34772    | 0.41524    |   5.2 | 59.00
Neigh   | 0.016227   | 0.023262   | 0.02649    |   2.0 |  3.95
Comm    | 0.024377   | 0.027996   | 0.0372     |   2.5 |  4.75
Output  | 5.7748e-05 | 6.4e-05    | 0.00018914 |   0.0 |  0.01
Modify  | 0.0028522  | 0.003747   | 0.0050562  |   1.1 |  0.64
Other   |            | 0.002013   |            |       |  0.34

Nlocal:        192.296 ave         202 max         185 min
Histogram: 2 4 3 2 8 3 1 2 1 1
Nghost:        1841.48 ave        1861 max        1815 min
Histogram: 3 1 2 1 1 3 5 5 4 2
Neighs:        16462.9 ave       17959 max       15026 min
Histogram: 1 0 3 4 5 7 5 1 0 1

Total # of neighbors = 444499
Ave neighs/atom = 85.612288
Neighbor list builds = 28
Dangerous builds = 0
unfix    eqmd

group   solvent type 1
5002 atoms in group solvent
group   water   empty
0 atoms in group water
group   ions    type 2 3
190 atoms in group ions
group   wall    type 4 5
0 atoms in group wall
group   flying  type 6 7 8
0 atoms in group flying
group   eq_run  union solvent ions flying
5192 atoms in group eq_run
            
######################################################################
pair_style   lj/cut/coul/long 2.500000 3.500000
kspace_style pppm 0.0001

# LJ (neq? False)
# real lj particles
pair_coeff  * *         1.  1.  2.5   # solvent + ions
pair_coeff  4*5 4*5     0   0   2.5   # wall atoms

        
pair_modify  tail no shift yes mix arithmetic # LB mixing rule
neigh_modify delay 2 every 1 check yes page 500000 one 50000
######################################################################
# shake is off; should be a dummy run
timestep 0.005000
thermo 2000
fix  eqmd   eq_run nvt temp 1.000000 1.000000 0.500000
run 0 # (neq? False) MD run
PPPM initialization ...
  using 12-bit tables for long-range coulomb (../kspace.cpp:340)
  G vector (1/distance) = 0.80564388
  grid = 36 36 36
  stencil order = 5
  estimated absolute RMS force accuracy = 7.8120263e-05
  estimated relative force accuracy = 7.8120263e-05
  using single precision KISS FFT
  3d grid and FFT values/proc = 4913 2592
Per MPI rank memory allocation (min/avg/max) = 5.425 | 5.447 | 5.490 Mbytes
Step Temp Atoms Density TotEng PotEng KinEng E_coul E_vdwl E_long Enthalpy Press 
     400     0.989243     5192     0.750951 -15733.703158 -23436.445744  7702.742586   -66.285735 -23070.115537  -300.044472 -9213.227601     0.943097 
Loop time of 3.28422e-06 on 27 procs for 0 steps with 5192 atoms

0.0% CPU use with 27 MPI tasks x no OpenMP threads

MPI task timing breakdown:
Section |  min time  |  avg time  |  max time  |%varavg| %total
---------------------------------------------------------------
Pair    | 0          | 0          | 0          |   0.0 |  0.00
Kspace  | 0          | 0          | 0          |   0.0 |  0.00
Neigh   | 0          | 0          | 0          |   0.0 |  0.00
Comm    | 0          | 0          | 0          |   0.0 |  0.00
Output  | 0          | 0          | 0          |   0.0 |  0.00
Modify  | 0          | 0          | 0          |   0.0 |  0.00
Other   |            | 3.284e-06  |            |       |100.00

Nlocal:        192.296 ave         201 max         184 min
Histogram: 1 2 4 1 6 6 2 2 1 2
Nghost:        1841.15 ave        1857 max        1813 min
Histogram: 2 1 1 3 1 1 1 7 4 6
Neighs:        16463.4 ave       17876 max       14929 min
Histogram: 1 0 2 2 5 8 6 2 0 1

Total # of neighbors = 444513
Ave neighs/atom = 85.614985
Neighbor list builds = 0
Dangerous builds = 0
unfix    eqmd
create_atoms  6 random  1  39385  NULL units box # not_read
Created 1 atoms
  using box units in orthogonal box = (-9.5252781 -9.5252781 -9.5252781) to (9.5252781 9.5252781 9.5252781)
  create_atoms CPU = 0.000 seconds
run 0 post no # temp=1.000000 unit_lj?=True velocity generated
WARNING: No fixes defined, atoms won't move (../verlet.cpp:55)
PPPM initialization ...
  using 12-bit tables for long-range coulomb (../kspace.cpp:340)
  G vector (1/distance) = 0.80564204
  grid = 36 36 36
  stencil order = 5
  estimated absolute RMS force accuracy = 7.8113888e-05
  estimated relative force accuracy = 7.8113888e-05
  using single precision KISS FFT
  3d grid and FFT values/proc = 4913 2592
Per MPI rank memory allocation (min/avg/max) = 5.425 | 5.447 | 5.490 Mbytes
Step Temp Atoms Density TotEng PotEng KinEng E_coul E_vdwl E_long Enthalpy Press 
     400     0.989183     5193     0.751096  5183.639126 -2520.120322  7703.759448   -66.286069 -2153.790115  -300.044138 96030.848627    13.139796 
Loop time of 2.75052e-06 on 27 procs for 0 steps with 5193 atoms

# generated_velocity_lj 5193 lj_solvent vel -0.092356 -0.988927 -1.023336
group   widom_test  type    6 # insert lj
1 atoms in group widom_test
set type 6 charge 0.000000
Setting atom values ...
  1 settings made for charge
run 0 post no # insert flying molecule
WARNING: No fixes defined, atoms won't move (../verlet.cpp:55)
PPPM initialization ...
  using 12-bit tables for long-range coulomb (../kspace.cpp:340)
  G vector (1/distance) = 0.80564204
  grid = 36 36 36
  stencil order = 5
  estimated absolute RMS force accuracy = 7.8113888e-05
  estimated relative force accuracy = 7.8113888e-05
  using single precision KISS FFT
  3d grid and FFT values/proc = 4913 2592
Per MPI rank memory allocation (min/avg/max) = 5.425 | 5.447 | 5.490 Mbytes
Step Temp Atoms Density TotEng PotEng KinEng E_coul E_vdwl E_long Enthalpy Press 
     400     0.989183     5193     0.751096  5183.639126 -2520.120322  7703.759448   -66.286069 -2153.790115  -300.044138 96030.848627    13.139796 
Loop time of 2.94026e-06 on 27 procs for 0 steps with 5193 atoms

group noneq_run_rigid    intersect   all         water               # select_lj no selection
0 atoms in group noneq_run_rigid
group noneq_run          subtract    all         noneq_run_rigid     # select_lj no selection
5193 atoms in group noneq_run
run 0 post no # mom rev random number
WARNING: No fixes defined, atoms won't move (../verlet.cpp:55)
PPPM initialization ...
  using 12-bit tables for long-range coulomb (../kspace.cpp:340)
  G vector (1/distance) = 0.80564204
  grid = 36 36 36
  stencil order = 5
  estimated absolute RMS force accuracy = 7.8113888e-05
  estimated relative force accuracy = 7.8113888e-05
  using single precision KISS FFT
  3d grid and FFT values/proc = 4913 2592
Per MPI rank memory allocation (min/avg/max) = 5.425 | 5.447 | 5.490 Mbytes
Step Temp Atoms Density TotEng PotEng KinEng E_coul E_vdwl E_long Enthalpy Press 
     400     0.989183     5193     0.751096  5183.639126 -2520.120322  7703.759448   -66.286069 -2153.790115  -300.044138 96030.848627    13.139796 
Loop time of 3.20356e-06 on 27 procs for 0 steps with 5193 atoms

run 0 post no # momentum reversal applied
WARNING: No fixes defined, atoms won't move (../verlet.cpp:55)
PPPM initialization ...
  using 12-bit tables for long-range coulomb (../kspace.cpp:340)
  G vector (1/distance) = 0.80564204
  grid = 36 36 36
  stencil order = 5
  estimated absolute RMS force accuracy = 7.8113888e-05
  estimated relative force accuracy = 7.8113888e-05
  using single precision KISS FFT
  3d grid and FFT values/proc = 4913 2592
Per MPI rank memory allocation (min/avg/max) = 5.425 | 5.447 | 5.490 Mbytes
Step Temp Atoms Density TotEng PotEng KinEng E_coul E_vdwl E_long Enthalpy Press 
     400     0.989183     5193     0.751096  5183.639126 -2520.120322  7703.759448   -66.286069 -2153.790115  -300.044138 96030.848627    13.139796 
Loop time of 3.24915e-06 on 27 procs for 0 steps with 5193 atoms

######################################################################
pair_style   lj/cut/coul/long/neq 2.500000 3.500000 400 200 1.000000 5 1 0 1.000000 1.000000 11 1.000000
kspace_style pppm 0.0001

# LJ (neq? True)
# real lj particles
pair_coeff  * *         1.  1.  2.5   # solvent + ions
pair_coeff  4*5 4*5     0   0   2.5   # wall atoms

        
pair_modify  tail no shift yes mix arithmetic # LB mixing rule
neigh_modify delay 2 every 1 check yes page 500000 one 50000
######################################################################
timestep 0.010000
fix  eqmd  noneq_run           nve                 # nve for non-rigid
run 200 # (neq? True) MD run
PPPM initialization ...
  using 12-bit tables for long-range coulomb (../kspace.cpp:340)
  G vector (1/distance) = 0.80564204
  grid = 36 36 36
  stencil order = 5
  estimated absolute RMS force accuracy = 7.8113888e-05
  estimated relative force accuracy = 7.8113888e-05
  using single precision KISS FFT
  3d grid and FFT values/proc = 4913 2592
Neighbor list info ...
  update every 1 steps, delay 2 steps, check yes
  max neighbors/atom: 50000, page size: 500000
  master list distance cutoff = 3.8
  ghost atom cutoff = 3.8
  binsize = 1.9, bins = 11 11 11
  1 neighbor lists, perpetual/occasional/extra = 1 0 0
  (1) pair lj/cut/coul/long/neq, perpetual
      attributes: half, newton on
      pair build: half/bin/atomonly/newton
      stencil: half/bin/3d
      bin: standard
Per MPI rank memory allocation (min/avg/max) = 5.425 | 5.447 | 5.490 Mbytes
Step Temp Atoms Density TotEng PotEng KinEng E_coul E_vdwl E_long Enthalpy Press 
     400     0.989183     5193     0.751096 -15737.130705 -23440.890153  7703.759448   -66.286069 -23074.559946  -300.044138 -9220.575407     0.942530 
     600     0.986494     5193     0.751096 -15727.975921 -23410.791759  7682.815838   -64.281047 -23051.790503  -294.720210 -9204.390122     0.943547 
Loop time of 0.626874 on 27 procs for 200 steps with 5193 atoms

Performance: 275653.567 tau/day, 319.043 timesteps/s
92.9% CPU use with 27 MPI tasks x no OpenMP threads

MPI task timing breakdown:
Section |  min time  |  avg time  |  max time  |%varavg| %total
---------------------------------------------------------------
Pair    | 0.11926    | 0.1913     | 0.22397    |   7.5 | 30.52
Kspace  | 0.3182     | 0.35398    | 0.43025    |   5.8 | 56.47
Neigh   | 0.030205   | 0.043132   | 0.049306   |   2.8 |  6.88
Comm    | 0.029495   | 0.033117   | 0.042499   |   2.2 |  5.28
Output  | 5.8128e-05 | 6.9402e-05 | 0.00020281 |   0.0 |  0.01
Modify  | 0.00072573 | 0.0010768  | 0.0013171  |   0.5 |  0.17
Other   |            | 0.004195   |            |       |  0.67

Nlocal:        192.333 ave         201 max         182 min
Histogram: 1 1 2 3 2 8 1 6 2 1
Nghost:        1840.74 ave        1866 max        1812 min
Histogram: 2 1 2 1 6 4 6 1 2 2
Neighs:        16475.0 ave       17273 max       15268 min
Histogram: 2 1 3 1 0 5 3 4 3 5

Total # of neighbors = 444824
Ave neighs/atom = 85.658386
Neighbor list builds = 51
Dangerous builds = 0
unfix    eqmd
run 0 post no # momentum reversal applied
WARNING: No fixes defined, atoms won't move (../verlet.cpp:55)
PPPM initialization ...
  using 12-bit tables for long-range coulomb (../kspace.cpp:340)
  G vector (1/distance) = 0.80564204
  grid = 36 36 36
  stencil order = 5
  estimated absolute RMS force accuracy = 7.8113888e-05
  estimated relative force accuracy = 7.8113888e-05
  using single precision KISS FFT
  3d grid and FFT values/proc = 4913 2592
Per MPI rank memory allocation (min/avg/max) = 5.425 | 5.447 | 5.490 Mbytes
Step Temp Atoms Density TotEng PotEng KinEng E_coul E_vdwl E_long Enthalpy Press 
     600     0.986494     5193     0.751096 -15727.975922 -23410.791759  7682.815838   -64.281047 -23051.790503  -294.720210 -9204.390122     0.943547 
Loop time of 2.96515e-06 on 27 procs for 0 steps with 5193 atoms


group   solvent type 1
5002 atoms in group solvent
group   water   empty
0 atoms in group water
group   ions    type 2 3
190 atoms in group ions
group   wall    type 4 5
0 atoms in group wall
group   flying  type 6 7 8
1 atoms in group flying
group   eq_run  union solvent ions flying
5193 atoms in group eq_run
            
######################################################################
pair_style   lj/cut/coul/long 2.500000 3.500000
kspace_style pppm 0.0001

# LJ (neq? False)
# real lj particles
pair_coeff  * *         1.  1.  2.5   # solvent + ions
pair_coeff  4*5 4*5     0   0   2.5   # wall atoms

        
pair_modify  tail no shift yes mix arithmetic # LB mixing rule
neigh_modify delay 2 every 1 check yes page 500000 one 50000
######################################################################
run 0 post no # update forcefield; return to Eq
WARNING: No fixes defined, atoms won't move (../verlet.cpp:55)
PPPM initialization ...
  using 12-bit tables for long-range coulomb (../kspace.cpp:340)
  G vector (1/distance) = 0.80564204
  grid = 36 36 36
  stencil order = 5
  estimated absolute RMS force accuracy = 7.8113888e-05
  estimated relative force accuracy = 7.8113888e-05
  using single precision KISS FFT
  3d grid and FFT values/proc = 4913 2592
Neighbor list info ...
  update every 1 steps, delay 2 steps, check yes
  max neighbors/atom: 50000, page size: 500000
  master list distance cutoff = 3.8
  ghost atom cutoff = 3.8
  binsize = 1.9, bins = 11 11 11
  1 neighbor lists, perpetual/occasional/extra = 1 0 0
  (1) pair lj/cut/coul/long, perpetual
      attributes: half, newton on
      pair build: half/bin/atomonly/newton
      stencil: half/bin/3d
      bin: standard
Per MPI rank memory allocation (min/avg/max) = 5.425 | 5.447 | 5.490 Mbytes
Step Temp Atoms Density TotEng PotEng KinEng E_coul E_vdwl E_long Enthalpy Press 
     600     0.986494     5193     0.751096 -15727.975922 -23410.791759  7682.815838   -64.281047 -23051.790503  -294.720210 -9204.390122     0.943547 
Loop time of 3.37022e-06 on 27 procs for 0 steps with 5193 atoms

# done post_propagate after NEMD
delete_atoms group widom_test compress no # lj bond yes mol yes # reject_insert
Deleted 1 atoms, new total = 5192
run 0 post no # delete trial-inserted flying molecule
WARNING: No fixes defined, atoms won't move (../verlet.cpp:55)
PPPM initialization ...
  using 12-bit tables for long-range coulomb (../kspace.cpp:340)
  G vector (1/distance) = 0.80564388
  grid = 36 36 36
  stencil order = 5
  estimated absolute RMS force accuracy = 7.8120263e-05
  estimated relative force accuracy = 7.8120263e-05
  using single precision KISS FFT
  3d grid and FFT values/proc = 4913 2592
Per MPI rank memory allocation (min/avg/max) = 5.425 | 5.447 | 5.490 Mbytes
Step Temp Atoms Density TotEng PotEng KinEng E_coul E_vdwl E_long Enthalpy Press 
     600     0.985943     5192     0.750951 -15725.479910 -23402.523415  7677.043506   -64.280717 -23043.522159  -294.720540 -9205.772656     0.942986 
Loop time of 3.04456e-06 on 27 procs for 0 steps with 5192 atoms

run 0 post no # return_position back to old
WARNING: No fixes defined, atoms won't move (../verlet.cpp:55)
PPPM initialization ...
  using 12-bit tables for long-range coulomb (../kspace.cpp:340)
  G vector (1/distance) = 0.80564388
  grid = 36 36 36
  stencil order = 5
  estimated absolute RMS force accuracy = 7.8120263e-05
  estimated relative force accuracy = 7.8120263e-05
  using single precision KISS FFT
  3d grid and FFT values/proc = 4913 2592
Per MPI rank memory allocation (min/avg/max) = 5.425 | 5.447 | 5.490 Mbytes
Step Temp Atoms Density TotEng PotEng KinEng E_coul E_vdwl E_long Enthalpy Press 
     600     0.989243     5192     0.750951 -15733.703158 -23436.445744  7702.742586   -66.285735 -23070.115537  -300.044472 -9213.227601     0.943097 
Loop time of 3.26663e-06 on 27 procs for 0 steps with 5192 atoms

group widom_test         delete
group noneq_run          delete
group noneq_run_rigid    delete
reset_timestep 400

group   solvent delete
group   water   delete
group   ions    delete
group   wall    delete
group   flying  delete
group   eq_run  delete
        
write_data restart_after_MC_1.data pair ij
System init for write_data ...
PPPM initialization ...
  using 12-bit tables for long-range coulomb (../kspace.cpp:340)
  G vector (1/distance) = 0.80564388
  grid = 36 36 36
  stencil order = 5
  estimated absolute RMS force accuracy = 7.8120263e-05
  estimated relative force accuracy = 7.8120263e-05
  using single precision KISS FFT
  3d grid and FFT values/proc = 4913 2592
log logfile_hneqMDMC.2
