
group   solvent type 1
5002 atoms in group solvent
group   water   empty
0 atoms in group water
group   ions    type 2 3
190 atoms in group ions
group   wall    type 4 5
0 atoms in group wall
group   flying  type 6 7 8
0 atoms in group flying
group   eq_run  union solvent ions flying
5192 atoms in group eq_run
            
######################################################################
pair_style   lj/cut/coul/long 2.500000 3.500000
kspace_style pppm 0.0001

# LJ (neq? False)
# real lj particles
pair_coeff  * *         1.  1.  2.5   # solvent + ions
pair_coeff  4*5 4*5     0   0   2.5   # wall atoms

        
pair_modify  tail no shift yes mix arithmetic # LB mixing rule
neigh_modify delay 2 every 1 check yes page 500000 one 50000
######################################################################
timestep 0.005000
thermo 2000
fix  eqmd   eq_run nvt temp 1.000000 1.000000 0.500000
run 200 # (neq? False) MD run
PPPM initialization ...
  using 12-bit tables for long-range coulomb (../kspace.cpp:340)
  G vector (1/distance) = 0.80564388
  grid = 36 36 36
  stencil order = 5
  estimated absolute RMS force accuracy = 7.8120263e-05
  estimated relative force accuracy = 7.8120263e-05
  using single precision KISS FFT
  3d grid and FFT values/proc = 4913 2592
Per MPI rank memory allocation (min/avg/max) = 5.425 | 5.447 | 5.490 Mbytes
Step Temp Atoms Density TotEng PotEng KinEng E_coul E_vdwl E_long Enthalpy Press 
     800     0.994552     5192     0.750951 -15721.453602 -23465.529299  7744.075697   -62.439595 -23103.050588  -300.039115 -9677.829960     0.874127 
    1000     1.001494     5192     0.750951 -15469.443469 -23267.573765  7798.130296   -60.304551 -22906.186097  -301.083117 -8057.393145     1.072051 
Loop time of 0.589096 on 27 procs for 200 steps with 5192 atoms

Performance: 146665.423 tau/day, 339.503 timesteps/s
92.8% CPU use with 27 MPI tasks x no OpenMP threads

MPI task timing breakdown:
Section |  min time  |  avg time  |  max time  |%varavg| %total
---------------------------------------------------------------
Pair    | 0.11701    | 0.18491    | 0.21982    |   7.5 | 31.39
Kspace  | 0.31113    | 0.34684    | 0.4122     |   5.3 | 58.88
Neigh   | 0.016153   | 0.023233   | 0.026906   |   2.0 |  3.94
Comm    | 0.024804   | 0.028139   | 0.037594   |   2.4 |  4.78
Output  | 5.1397e-05 | 5.7939e-05 | 0.00018397 |   0.0 |  0.01
Modify  | 0.0030019  | 0.0039123  | 0.0057148  |   1.1 |  0.66
Other   |            | 0.002005   |            |       |  0.34

Nlocal:        192.296 ave         202 max         181 min
Histogram: 3 1 1 3 4 4 2 3 3 3
Nghost:        1846.04 ave        1876 max        1814 min
Histogram: 1 0 3 3 5 6 4 3 0 2
Neighs:        16463.8 ave       17893 max       15158 min
Histogram: 2 3 2 5 4 1 3 2 3 2

Total # of neighbors = 444523
Ave neighs/atom = 85.616911
Neighbor list builds = 28
Dangerous builds = 0
unfix    eqmd

group   solvent type 1
5002 atoms in group solvent
group   water   empty
0 atoms in group water
group   ions    type 2 3
190 atoms in group ions
group   wall    type 4 5
0 atoms in group wall
group   flying  type 6 7 8
0 atoms in group flying
group   eq_run  union solvent ions flying
5192 atoms in group eq_run
            
######################################################################
pair_style   lj/cut/coul/long 2.500000 3.500000
kspace_style pppm 0.0001

# LJ (neq? False)
# real lj particles
pair_coeff  * *         1.  1.  2.5   # solvent + ions
pair_coeff  4*5 4*5     0   0   2.5   # wall atoms

        
pair_modify  tail no shift yes mix arithmetic # LB mixing rule
neigh_modify delay 2 every 1 check yes page 500000 one 50000
######################################################################
# shake is off; should be a dummy run
timestep 0.005000
thermo 2000
fix  eqmd   eq_run nvt temp 1.000000 1.000000 0.500000
run 0 # (neq? False) MD run
PPPM initialization ...
  using 12-bit tables for long-range coulomb (../kspace.cpp:340)
  G vector (1/distance) = 0.80564388
  grid = 36 36 36
  stencil order = 5
  estimated absolute RMS force accuracy = 7.8120263e-05
  estimated relative force accuracy = 7.8120263e-05
  using single precision KISS FFT
  3d grid and FFT values/proc = 4913 2592
Per MPI rank memory allocation (min/avg/max) = 5.425 | 5.447 | 5.490 Mbytes
Step Temp Atoms Density TotEng PotEng KinEng E_coul E_vdwl E_long Enthalpy Press 
    1000     1.001494     5192     0.750951 -15469.443469 -23267.573765  7798.130296   -60.304551 -22906.186097  -301.083117 -8057.393145     1.072051 
Loop time of 3.0813e-06 on 27 procs for 0 steps with 5192 atoms

92.6% CPU use with 27 MPI tasks x no OpenMP threads

MPI task timing breakdown:
Section |  min time  |  avg time  |  max time  |%varavg| %total
---------------------------------------------------------------
Pair    | 0          | 0          | 0          |   0.0 |  0.00
Kspace  | 0          | 0          | 0          |   0.0 |  0.00
Neigh   | 0          | 0          | 0          |   0.0 |  0.00
Comm    | 0          | 0          | 0          |   0.0 |  0.00
Output  | 0          | 0          | 0          |   0.0 |  0.00
Modify  | 0          | 0          | 0          |   0.0 |  0.00
Other   |            | 3.081e-06  |            |       |100.00

Nlocal:        192.296 ave         203 max         181 min
Histogram: 2 2 1 2 6 4 4 2 2 2
Nghost:        1848.26 ave        1877 max        1816 min
Histogram: 1 1 3 2 5 5 4 2 2 2
Neighs:        16458.9 ave       17910 max       15157 min
Histogram: 1 4 3 3 4 3 2 3 3 1

Total # of neighbors = 444389
Ave neighs/atom = 85.591102
Neighbor list builds = 0
Dangerous builds = 0
unfix    eqmd
create_atoms  6 random  1  39972  NULL units box # not_read
Created 1 atoms
  using box units in orthogonal box = (-9.5252781 -9.5252781 -9.5252781) to (9.5252781 9.5252781 9.5252781)
  create_atoms CPU = 0.000 seconds
run 0 post no # temp=1.000000 unit_lj?=True velocity generated
WARNING: No fixes defined, atoms won't move (../verlet.cpp:55)
PPPM initialization ...
  using 12-bit tables for long-range coulomb (../kspace.cpp:340)
  G vector (1/distance) = 0.80564204
  grid = 36 36 36
  stencil order = 5
  estimated absolute RMS force accuracy = 7.8113888e-05
  estimated relative force accuracy = 7.8113888e-05
  using single precision KISS FFT
  3d grid and FFT values/proc = 4913 2592
Per MPI rank memory allocation (min/avg/max) = 5.425 | 5.447 | 5.490 Mbytes
Step Temp Atoms Density TotEng PotEng KinEng E_coul E_vdwl E_long Enthalpy Press 
    1000     1.001604     5193     0.751096 -13492.482087 -21292.975269  7800.493182   -60.304873 -20931.587601  -301.082795  2165.437023     2.264702 
Loop time of 3.20004e-06 on 27 procs for 0 steps with 5193 atoms

# generated_velocity_lj 5193 lj_solvent vel 0.529898 1.933852 -0.839760
group   widom_test  type    6 # insert lj
1 atoms in group widom_test
set type 6 charge 0.000000
Setting atom values ...
  1 settings made for charge
run 0 post no # insert flying molecule
WARNING: No fixes defined, atoms won't move (../verlet.cpp:55)
PPPM initialization ...
  using 12-bit tables for long-range coulomb (../kspace.cpp:340)
  G vector (1/distance) = 0.80564204
  grid = 36 36 36
  stencil order = 5
  estimated absolute RMS force accuracy = 7.8113888e-05
  estimated relative force accuracy = 7.8113888e-05
  using single precision KISS FFT
  3d grid and FFT values/proc = 4913 2592
Per MPI rank memory allocation (min/avg/max) = 5.425 | 5.447 | 5.490 Mbytes
Step Temp Atoms Density TotEng PotEng KinEng E_coul E_vdwl E_long Enthalpy Press 
    1000     1.001604     5193     0.751096 -13492.482087 -21292.975269  7800.493182   -60.304873 -20931.587601  -301.082795  2165.437023     2.264702 
Loop time of 2.96304e-06 on 27 procs for 0 steps with 5193 atoms

group noneq_run_rigid    intersect   all         water               # select_lj no selection
0 atoms in group noneq_run_rigid
group noneq_run          subtract    all         noneq_run_rigid     # select_lj no selection
5193 atoms in group noneq_run
run 0 post no # mom rev random number
WARNING: No fixes defined, atoms won't move (../verlet.cpp:55)
PPPM initialization ...
  using 12-bit tables for long-range coulomb (../kspace.cpp:340)
  G vector (1/distance) = 0.80564204
  grid = 36 36 36
  stencil order = 5
  estimated absolute RMS force accuracy = 7.8113888e-05
  estimated relative force accuracy = 7.8113888e-05
  using single precision KISS FFT
  3d grid and FFT values/proc = 4913 2592
Per MPI rank memory allocation (min/avg/max) = 5.425 | 5.447 | 5.490 Mbytes
Step Temp Atoms Density TotEng PotEng KinEng E_coul E_vdwl E_long Enthalpy Press 
    1000     1.001604     5193     0.751096 -13492.482087 -21292.975269  7800.493182   -60.304873 -20931.587601  -301.082795  2165.437023     2.264702 
Loop time of 3.28963e-06 on 27 procs for 0 steps with 5193 atoms

run 0 post no # momentum reversal applied
WARNING: No fixes defined, atoms won't move (../verlet.cpp:55)
PPPM initialization ...
  using 12-bit tables for long-range coulomb (../kspace.cpp:340)
  G vector (1/distance) = 0.80564204
  grid = 36 36 36
  stencil order = 5
  estimated absolute RMS force accuracy = 7.8113888e-05
  estimated relative force accuracy = 7.8113888e-05
  using single precision KISS FFT
  3d grid and FFT values/proc = 4913 2592
Per MPI rank memory allocation (min/avg/max) = 5.425 | 5.447 | 5.490 Mbytes
Step Temp Atoms Density TotEng PotEng KinEng E_coul E_vdwl E_long Enthalpy Press 
    1000     1.001604     5193     0.751096 -13492.482087 -21292.975269  7800.493182   -60.304873 -20931.587601  -301.082795  2165.437023     2.264702 
Loop time of 3.26367e-06 on 27 procs for 0 steps with 5193 atoms

######################################################################
pair_style   lj/cut/coul/long/neq 2.500000 3.500000 1000 200 1.000000 5 1 0 1.000000 1.000000 11 1.000000
kspace_style pppm 0.0001

# LJ (neq? True)
# real lj particles
pair_coeff  * *         1.  1.  2.5   # solvent + ions
pair_coeff  4*5 4*5     0   0   2.5   # wall atoms

        
pair_modify  tail no shift yes mix arithmetic # LB mixing rule
neigh_modify delay 2 every 1 check yes page 500000 one 50000
######################################################################
timestep 0.010000
fix  eqmd  noneq_run           nve                 # nve for non-rigid
run 200 # (neq? True) MD run
PPPM initialization ...
  using 12-bit tables for long-range coulomb (../kspace.cpp:340)
  G vector (1/distance) = 0.80564204
  grid = 36 36 36
  stencil order = 5
  estimated absolute RMS force accuracy = 7.8113888e-05
  estimated relative force accuracy = 7.8113888e-05
  using single precision KISS FFT
  3d grid and FFT values/proc = 4913 2592
Neighbor list info ...
  update every 1 steps, delay 2 steps, check yes
  max neighbors/atom: 50000, page size: 500000
  master list distance cutoff = 3.8
  ghost atom cutoff = 3.8
  binsize = 1.9, bins = 11 11 11
  1 neighbor lists, perpetual/occasional/extra = 1 0 0
  (1) pair lj/cut/coul/long/neq, perpetual
      attributes: half, newton on
      pair build: half/bin/atomonly/newton
      stencil: half/bin/3d
      bin: standard
Per MPI rank memory allocation (min/avg/max) = 5.425 | 5.447 | 5.490 Mbytes
Step Temp Atoms Density TotEng PotEng KinEng E_coul E_vdwl E_long Enthalpy Press 
    1000     1.001604     5193     0.751096 -15472.308528 -23272.801710  7800.493182   -60.304873 -22911.414042  -301.082795 -8063.259972     1.071617 
    1200     1.007724     5193     0.751096 -15467.366381 -23315.519635  7848.153255   -65.711365 -22947.940379  -301.867891 -8085.598379     1.067671 
Loop time of 0.609448 on 27 procs for 200 steps with 5193 atoms

Performance: 283535.171 tau/day, 328.166 timesteps/s
93.1% CPU use with 27 MPI tasks x no OpenMP threads

MPI task timing breakdown:
Section |  min time  |  avg time  |  max time  |%varavg| %total
---------------------------------------------------------------
Pair    | 0.12307    | 0.19088    | 0.21658    |   7.2 | 31.32
Kspace  | 0.31341    | 0.34064    | 0.41133    |   5.7 | 55.89
Neigh   | 0.029863   | 0.042583   | 0.047895   |   2.8 |  6.99
Comm    | 0.02815    | 0.031155   | 0.03997    |   2.3 |  5.11
Output  | 5.4027e-05 | 6.4624e-05 | 0.00019081 |   0.0 |  0.01
Modify  | 0.00076536 | 0.0011192  | 0.0014384  |   0.5 |  0.18
Other   |            | 0.003007   |            |       |  0.49

Nlocal:        192.333 ave         203 max         179 min
Histogram: 1 0 3 1 6 5 2 5 2 2
Nghost:        1844.44 ave        1870 max        1827 min
Histogram: 4 6 2 3 2 3 3 0 1 3
Neighs:        16474.8 ave       18271 max       14832 min
Histogram: 2 1 4 3 3 7 4 0 2 1

Total # of neighbors = 444820
Ave neighs/atom = 85.657616
Neighbor list builds = 51
Dangerous builds = 0
unfix    eqmd
run 0 post no # momentum reversal applied
WARNING: No fixes defined, atoms won't move (../verlet.cpp:55)
PPPM initialization ...
  using 12-bit tables for long-range coulomb (../kspace.cpp:340)
  G vector (1/distance) = 0.80564204
  grid = 36 36 36
  stencil order = 5
  estimated absolute RMS force accuracy = 7.8113888e-05
  estimated relative force accuracy = 7.8113888e-05
  using single precision KISS FFT
  3d grid and FFT values/proc = 4913 2592
Per MPI rank memory allocation (min/avg/max) = 5.425 | 5.447 | 5.490 Mbytes
Step Temp Atoms Density TotEng PotEng KinEng E_coul E_vdwl E_long Enthalpy Press 
    1200     1.007724     5193     0.751096 -15467.366380 -23315.519635  7848.153255   -65.711365 -22947.940379  -301.867891 -8085.598378     1.067671 
Loop time of 2.87389e-06 on 27 procs for 0 steps with 5193 atoms


group   solvent type 1
5002 atoms in group solvent
group   water   empty
0 atoms in group water
group   ions    type 2 3
190 atoms in group ions
group   wall    type 4 5
0 atoms in group wall
group   flying  type 6 7 8
1 atoms in group flying
group   eq_run  union solvent ions flying
5193 atoms in group eq_run
            
######################################################################
pair_style   lj/cut/coul/long 2.500000 3.500000
kspace_style pppm 0.0001

# LJ (neq? False)
# real lj particles
pair_coeff  * *         1.  1.  2.5   # solvent + ions
pair_coeff  4*5 4*5     0   0   2.5   # wall atoms

        
pair_modify  tail no shift yes mix arithmetic # LB mixing rule
neigh_modify delay 2 every 1 check yes page 500000 one 50000
######################################################################
run 0 post no # update forcefield; return to Eq
WARNING: No fixes defined, atoms won't move (../verlet.cpp:55)
PPPM initialization ...
  using 12-bit tables for long-range coulomb (../kspace.cpp:340)
  G vector (1/distance) = 0.80564204
  grid = 36 36 36
  stencil order = 5
  estimated absolute RMS force accuracy = 7.8113888e-05
  estimated relative force accuracy = 7.8113888e-05
  using single precision KISS FFT
  3d grid and FFT values/proc = 4913 2592
Neighbor list info ...
  update every 1 steps, delay 2 steps, check yes
  max neighbors/atom: 50000, page size: 500000
  master list distance cutoff = 3.8
  ghost atom cutoff = 3.8
  binsize = 1.9, bins = 11 11 11
  1 neighbor lists, perpetual/occasional/extra = 1 0 0
  (1) pair lj/cut/coul/long, perpetual
      attributes: half, newton on
      pair build: half/bin/atomonly/newton
      stencil: half/bin/3d
      bin: standard
Per MPI rank memory allocation (min/avg/max) = 5.425 | 5.447 | 5.490 Mbytes
Step Temp Atoms Density TotEng PotEng KinEng E_coul E_vdwl E_long Enthalpy Press 
    1200     1.007724     5193     0.751096 -15467.366380 -23315.519635  7848.153255   -65.711365 -22947.940379  -301.867891 -8085.598378     1.067671 
Loop time of 2.81759e-06 on 27 procs for 0 steps with 5193 atoms

# done post_propagate after NEMD
delete_atoms group widom_test compress no # lj bond yes mol yes # reject_insert
Deleted 1 atoms, new total = 5192
run 0 post no # delete trial-inserted flying molecule
WARNING: No fixes defined, atoms won't move (../verlet.cpp:55)
PPPM initialization ...
  using 12-bit tables for long-range coulomb (../kspace.cpp:340)
  G vector (1/distance) = 0.80564388
  grid = 36 36 36
  stencil order = 5
  estimated absolute RMS force accuracy = 7.8120263e-05
  estimated relative force accuracy = 7.8120263e-05
  using single precision KISS FFT
  3d grid and FFT values/proc = 4913 2592
Per MPI rank memory allocation (min/avg/max) = 5.425 | 5.447 | 5.490 Mbytes
Step Temp Atoms Density TotEng PotEng KinEng E_coul E_vdwl E_long Enthalpy Press 
    1200     1.007797     5192     0.750951 -15459.900311 -23307.113320  7847.213009   -65.711025 -22939.534064  -301.868230 -8071.928407     1.068568 
Loop time of 2.65537e-06 on 27 procs for 0 steps with 5192 atoms

run 0 post no # return_position back to old
WARNING: No fixes defined, atoms won't move (../verlet.cpp:55)
PPPM initialization ...
  using 12-bit tables for long-range coulomb (../kspace.cpp:340)
  G vector (1/distance) = 0.80564388
  grid = 36 36 36
  stencil order = 5
  estimated absolute RMS force accuracy = 7.8120263e-05
  estimated relative force accuracy = 7.8120263e-05
  using single precision KISS FFT
  3d grid and FFT values/proc = 4913 2592
Per MPI rank memory allocation (min/avg/max) = 5.425 | 5.447 | 5.490 Mbytes
Step Temp Atoms Density TotEng PotEng KinEng E_coul E_vdwl E_long Enthalpy Press 
    1200     1.001494     5192     0.750951 -15469.443469 -23267.573765  7798.130296   -60.304551 -22906.186097  -301.083117 -8057.393145     1.072051 
Loop time of 2.94956e-06 on 27 procs for 0 steps with 5192 atoms

group widom_test         delete
group noneq_run          delete
group noneq_run_rigid    delete
reset_timestep 1000

group   solvent delete
group   water   delete
group   ions    delete
group   wall    delete
group   flying  delete
group   eq_run  delete
        
write_data restart_after_MC_4.data pair ij
System init for write_data ...
PPPM initialization ...
  using 12-bit tables for long-range coulomb (../kspace.cpp:340)
  G vector (1/distance) = 0.80564388
  grid = 36 36 36
  stencil order = 5
  estimated absolute RMS force accuracy = 7.8120263e-05
  estimated relative force accuracy = 7.8120263e-05
  using single precision KISS FFT
  3d grid and FFT values/proc = 4913 2592
log logfile_hneqMDMC.5
