
group   solvent type 1
5002 atoms in group solvent
group   water   empty
0 atoms in group water
group   ions    type 2 3
190 atoms in group ions
group   wall    type 4 5
0 atoms in group wall
group   flying  type 6 7 8
0 atoms in group flying
group   eq_run  union solvent ions flying
5192 atoms in group eq_run
            
######################################################################
pair_style   lj/cut/coul/long 2.500000 3.500000
kspace_style pppm 0.0001

# LJ (neq? False)
# real lj particles
pair_coeff  * *         1.  1.  2.5   # solvent + ions
pair_coeff  4*5 4*5     0   0   2.5   # wall atoms

        
pair_modify  tail no shift yes mix arithmetic # LB mixing rule
neigh_modify delay 2 every 1 check yes page 500000 one 50000
######################################################################
timestep 0.005000
thermo 2000
fix  eqmd   eq_run nvt temp 1.000000 1.000000 0.500000
run 200 # (neq? False) MD run
PPPM initialization ...
  using 12-bit tables for long-range coulomb (../kspace.cpp:340)
  G vector (1/distance) = 0.80564388
  grid = 36 36 36
  stencil order = 5
  estimated absolute RMS force accuracy = 7.8120263e-05
  estimated relative force accuracy = 7.8120263e-05
  using single precision KISS FFT
  3d grid and FFT values/proc = 4913 2592
Per MPI rank memory allocation (min/avg/max) = 5.425 | 5.447 | 5.490 Mbytes
Step Temp Atoms Density TotEng PotEng KinEng E_coul E_vdwl E_long Enthalpy Press 
     600     1.010088     5192     0.750951 -15456.176950 -23321.226050  7865.049100   -63.819040 -22959.455596  -297.951413 -8303.257394     1.034571 
     800     0.994552     5192     0.750951 -15721.453602 -23465.529299  7744.075697   -62.439595 -23103.050588  -300.039116 -9677.829961     0.874127 
Loop time of 0.579071 on 27 procs for 200 steps with 5192 atoms

Performance: 149204.573 tau/day, 345.381 timesteps/s
93.3% CPU use with 27 MPI tasks x no OpenMP threads

MPI task timing breakdown:
Section |  min time  |  avg time  |  max time  |%varavg| %total
---------------------------------------------------------------
Pair    | 0.11403    | 0.18397    | 0.20993    |   7.0 | 31.77
Kspace  | 0.31295    | 0.33933    | 0.40641    |   4.9 | 58.60
Neigh   | 0.015861   | 0.02237    | 0.025607   |   1.9 |  3.86
Comm    | 0.024402   | 0.027393   | 0.036417   |   2.3 |  4.73
Output  | 5.2322e-05 | 5.8693e-05 | 0.00018624 |   0.0 |  0.01
Modify  | 0.0026889  | 0.0039423  | 0.0057046  |   1.3 |  0.68
Other   |            | 0.002014   |            |       |  0.35

Nlocal:        192.296 ave         210 max         182 min
Histogram: 3 3 6 4 3 2 5 0 0 1
Nghost:        1841.44 ave        1860 max        1807 min
Histogram: 1 0 2 3 1 2 6 2 3 7
Neighs:        16471.9 ave       18600 max       14868 min
Histogram: 2 0 3 8 4 5 4 0 0 1

Total # of neighbors = 444741
Ave neighs/atom = 85.658898
Neighbor list builds = 27
Dangerous builds = 0
unfix    eqmd

group   solvent type 1
5002 atoms in group solvent
group   water   empty
0 atoms in group water
group   ions    type 2 3
190 atoms in group ions
group   wall    type 4 5
0 atoms in group wall
group   flying  type 6 7 8
0 atoms in group flying
group   eq_run  union solvent ions flying
5192 atoms in group eq_run
            
######################################################################
pair_style   lj/cut/coul/long 2.500000 3.500000
kspace_style pppm 0.0001

# LJ (neq? False)
# real lj particles
pair_coeff  * *         1.  1.  2.5   # solvent + ions
pair_coeff  4*5 4*5     0   0   2.5   # wall atoms

        
pair_modify  tail no shift yes mix arithmetic # LB mixing rule
neigh_modify delay 2 every 1 check yes page 500000 one 50000
######################################################################
# shake is off; should be a dummy run
timestep 0.005000
thermo 2000
fix  eqmd   eq_run nvt temp 1.000000 1.000000 0.500000
run 0 # (neq? False) MD run
PPPM initialization ...
  using 12-bit tables for long-range coulomb (../kspace.cpp:340)
  G vector (1/distance) = 0.80564388
  grid = 36 36 36
  stencil order = 5
  estimated absolute RMS force accuracy = 7.8120263e-05
  estimated relative force accuracy = 7.8120263e-05
  using single precision KISS FFT
  3d grid and FFT values/proc = 4913 2592
Per MPI rank memory allocation (min/avg/max) = 5.425 | 5.447 | 5.490 Mbytes
Step Temp Atoms Density TotEng PotEng KinEng E_coul E_vdwl E_long Enthalpy Press 
     800     0.994552     5192     0.750951 -15721.453602 -23465.529299  7744.075697   -62.439595 -23103.050588  -300.039116 -9677.829961     0.874127 
Loop time of 2.72667e-06 on 27 procs for 0 steps with 5192 atoms

80.1% CPU use with 27 MPI tasks x no OpenMP threads

MPI task timing breakdown:
Section |  min time  |  avg time  |  max time  |%varavg| %total
---------------------------------------------------------------
Pair    | 0          | 0          | 0          |   0.0 |  0.00
Kspace  | 0          | 0          | 0          |   0.0 |  0.00
Neigh   | 0          | 0          | 0          |   0.0 |  0.00
Comm    | 0          | 0          | 0          |   0.0 |  0.00
Output  | 0          | 0          | 0          |   0.0 |  0.00
Modify  | 0          | 0          | 0          |   0.0 |  0.00
Other   |            | 2.727e-06  |            |       |100.00

Nlocal:        192.296 ave         207 max         182 min
Histogram: 3 3 4 1 6 4 2 3 0 1
Nghost:        1840.07 ave        1856 max        1810 min
Histogram: 1 0 3 0 4 4 3 1 4 7
Neighs:        16475.0 ave       18312 max       14776 min
Histogram: 2 0 1 4 10 1 5 3 0 1

Total # of neighbors = 444825
Ave neighs/atom = 85.675077
Neighbor list builds = 0
Dangerous builds = 0
unfix    eqmd
create_atoms  6 random  1  243  NULL units box # not_read
Created 1 atoms
  using box units in orthogonal box = (-9.5252781 -9.5252781 -9.5252781) to (9.5252781 9.5252781 9.5252781)
  create_atoms CPU = 0.000 seconds
run 0 post no # temp=1.000000 unit_lj?=True velocity generated
WARNING: No fixes defined, atoms won't move (../verlet.cpp:55)
PPPM initialization ...
  using 12-bit tables for long-range coulomb (../kspace.cpp:340)
  G vector (1/distance) = 0.80564204
  grid = 36 36 36
  stencil order = 5
  estimated absolute RMS force accuracy = 7.8113888e-05
  estimated relative force accuracy = 7.8113888e-05
  using single precision KISS FFT
  3d grid and FFT values/proc = 4913 2592
Per MPI rank memory allocation (min/avg/max) = 5.425 | 5.447 | 5.490 Mbytes
Step Temp Atoms Density TotEng PotEng KinEng E_coul E_vdwl E_long Enthalpy Press 
     800     0.995134     5193     0.751096 -14905.130409 -22655.232968  7750.102559   -62.439920 -22292.754257  -300.038791 -5412.684308     1.372951 
Loop time of 2.78119e-06 on 27 procs for 0 steps with 5193 atoms

# generated_velocity_lj 5193 lj_solvent vel -2.987111 -1.650481 -0.637813
group   widom_test  type    6 # insert lj
1 atoms in group widom_test
set type 6 charge 0.000000
Setting atom values ...
  1 settings made for charge
run 0 post no # insert flying molecule
WARNING: No fixes defined, atoms won't move (../verlet.cpp:55)
PPPM initialization ...
  using 12-bit tables for long-range coulomb (../kspace.cpp:340)
  G vector (1/distance) = 0.80564204
  grid = 36 36 36
  stencil order = 5
  estimated absolute RMS force accuracy = 7.8113888e-05
  estimated relative force accuracy = 7.8113888e-05
  using single precision KISS FFT
  3d grid and FFT values/proc = 4913 2592
Per MPI rank memory allocation (min/avg/max) = 5.425 | 5.447 | 5.490 Mbytes
Step Temp Atoms Density TotEng PotEng KinEng E_coul E_vdwl E_long Enthalpy Press 
     800     0.995134     5193     0.751096 -14905.130409 -22655.232968  7750.102559   -62.439920 -22292.754257  -300.038791 -5412.684308     1.372951 
Loop time of 3.04059e-06 on 27 procs for 0 steps with 5193 atoms

group noneq_run_rigid    intersect   all         water               # select_lj no selection
0 atoms in group noneq_run_rigid
group noneq_run          subtract    all         noneq_run_rigid     # select_lj no selection
5193 atoms in group noneq_run
run 0 post no # mom rev random number
WARNING: No fixes defined, atoms won't move (../verlet.cpp:55)
PPPM initialization ...
  using 12-bit tables for long-range coulomb (../kspace.cpp:340)
  G vector (1/distance) = 0.80564204
  grid = 36 36 36
  stencil order = 5
  estimated absolute RMS force accuracy = 7.8113888e-05
  estimated relative force accuracy = 7.8113888e-05
  using single precision KISS FFT
  3d grid and FFT values/proc = 4913 2592
Per MPI rank memory allocation (min/avg/max) = 5.425 | 5.447 | 5.490 Mbytes
Step Temp Atoms Density TotEng PotEng KinEng E_coul E_vdwl E_long Enthalpy Press 
     800     0.995134     5193     0.751096 -14905.130409 -22655.232968  7750.102559   -62.439920 -22292.754257  -300.038791 -5412.684308     1.372951 
Loop time of 2.92411e-06 on 27 procs for 0 steps with 5193 atoms

######################################################################
pair_style   lj/cut/coul/long/neq 2.500000 3.500000 800 200 1.000000 5 1 0 1.000000 1.000000 11 1.000000
kspace_style pppm 0.0001

# LJ (neq? True)
# real lj particles
pair_coeff  * *         1.  1.  2.5   # solvent + ions
pair_coeff  4*5 4*5     0   0   2.5   # wall atoms

        
pair_modify  tail no shift yes mix arithmetic # LB mixing rule
neigh_modify delay 2 every 1 check yes page 500000 one 50000
######################################################################
timestep 0.010000
fix  eqmd  noneq_run           nve                 # nve for non-rigid
run 200 # (neq? True) MD run
PPPM initialization ...
  using 12-bit tables for long-range coulomb (../kspace.cpp:340)
  G vector (1/distance) = 0.80564204
  grid = 36 36 36
  stencil order = 5
  estimated absolute RMS force accuracy = 7.8113888e-05
  estimated relative force accuracy = 7.8113888e-05
  using single precision KISS FFT
  3d grid and FFT values/proc = 4913 2592
Neighbor list info ...
  update every 1 steps, delay 2 steps, check yes
  max neighbors/atom: 50000, page size: 500000
  master list distance cutoff = 3.8
  ghost atom cutoff = 3.8
  binsize = 1.9, bins = 11 11 11
  1 neighbor lists, perpetual/occasional/extra = 1 0 0
  (1) pair lj/cut/coul/long/neq, perpetual
      attributes: half, newton on
      pair build: half/bin/atomonly/newton
      stencil: half/bin/3d
      bin: standard
Per MPI rank memory allocation (min/avg/max) = 5.425 | 5.447 | 5.490 Mbytes
Step Temp Atoms Density TotEng PotEng KinEng E_coul E_vdwl E_long Enthalpy Press 
     800     0.995134     5193     0.751096 -15719.949337 -23470.051897  7750.102559   -62.439920 -23107.573186  -300.038791 -9677.032233     0.874025 
    1000     0.999658     5193     0.751096 -15711.927134 -23497.267457  7785.340323   -62.963426 -23133.262136  -301.041895 -9457.299680     0.904646 
Loop time of 0.617422 on 27 procs for 200 steps with 5193 atoms

Performance: 279873.268 tau/day, 323.927 timesteps/s
92.6% CPU use with 27 MPI tasks x no OpenMP threads

MPI task timing breakdown:
Section |  min time  |  avg time  |  max time  |%varavg| %total
---------------------------------------------------------------
Pair    | 0.12062    | 0.19114    | 0.21924    |   7.4 | 30.96
Kspace  | 0.31691    | 0.34658    | 0.42121    |   5.8 | 56.13
Neigh   | 0.02949    | 0.042687   | 0.048384   |   2.8 |  6.91
Comm    | 0.029826   | 0.032783   | 0.041916   |   2.2 |  5.31
Output  | 6.2201e-05 | 7.2653e-05 | 0.00019966 |   0.0 |  0.01
Modify  | 0.00074972 | 0.0011106  | 0.001352   |   0.5 |  0.18
Other   |            | 0.003048   |            |       |  0.49

Nlocal:        192.333 ave         201 max         184 min
Histogram: 1 3 2 3 7 5 0 2 1 3
Nghost:        1848.81 ave        1870 max        1824 min
Histogram: 2 3 2 1 2 4 4 3 5 1
Neighs:        16448.6 ave       18265 max       15560 min
Histogram: 4 4 6 6 4 0 1 0 1 1

Total # of neighbors = 444111
Ave neighs/atom = 85.521086
Neighbor list builds = 51
Dangerous builds = 0
unfix    eqmd

group   solvent type 1
5002 atoms in group solvent
group   water   empty
0 atoms in group water
group   ions    type 2 3
190 atoms in group ions
group   wall    type 4 5
0 atoms in group wall
group   flying  type 6 7 8
1 atoms in group flying
group   eq_run  union solvent ions flying
5193 atoms in group eq_run
            
######################################################################
pair_style   lj/cut/coul/long 2.500000 3.500000
kspace_style pppm 0.0001

# LJ (neq? False)
# real lj particles
pair_coeff  * *         1.  1.  2.5   # solvent + ions
pair_coeff  4*5 4*5     0   0   2.5   # wall atoms

        
pair_modify  tail no shift yes mix arithmetic # LB mixing rule
neigh_modify delay 2 every 1 check yes page 500000 one 50000
######################################################################
run 0 post no # update forcefield; return to Eq
WARNING: No fixes defined, atoms won't move (../verlet.cpp:55)
PPPM initialization ...
  using 12-bit tables for long-range coulomb (../kspace.cpp:340)
  G vector (1/distance) = 0.80564204
  grid = 36 36 36
  stencil order = 5
  estimated absolute RMS force accuracy = 7.8113888e-05
  estimated relative force accuracy = 7.8113888e-05
  using single precision KISS FFT
  3d grid and FFT values/proc = 4913 2592
Neighbor list info ...
  update every 1 steps, delay 2 steps, check yes
  max neighbors/atom: 50000, page size: 500000
  master list distance cutoff = 3.8
  ghost atom cutoff = 3.8
  binsize = 1.9, bins = 11 11 11
  1 neighbor lists, perpetual/occasional/extra = 1 0 0
  (1) pair lj/cut/coul/long, perpetual
      attributes: half, newton on
      pair build: half/bin/atomonly/newton
      stencil: half/bin/3d
      bin: standard
Per MPI rank memory allocation (min/avg/max) = 5.425 | 5.447 | 5.490 Mbytes
Step Temp Atoms Density TotEng PotEng KinEng E_coul E_vdwl E_long Enthalpy Press 
    1000     0.999658     5193     0.751096 -15711.927134 -23497.267456  7785.340323   -62.963426 -23133.262136  -301.041895 -9457.299680     0.904646 
Loop time of 3.04407e-06 on 27 procs for 0 steps with 5193 atoms

# done post_propagate after NEMD
delete_atoms group widom_test compress no # lj bond yes mol yes # reject_insert
Deleted 1 atoms, new total = 5192
run 0 post no # delete trial-inserted flying molecule
WARNING: No fixes defined, atoms won't move (../verlet.cpp:55)
PPPM initialization ...
  using 12-bit tables for long-range coulomb (../kspace.cpp:340)
  G vector (1/distance) = 0.80564388
  grid = 36 36 36
  stencil order = 5
  estimated absolute RMS force accuracy = 7.8120263e-05
  estimated relative force accuracy = 7.8120263e-05
  using single precision KISS FFT
  3d grid and FFT values/proc = 4913 2592
Per MPI rank memory allocation (min/avg/max) = 5.425 | 5.447 | 5.490 Mbytes
Step Temp Atoms Density TotEng PotEng KinEng E_coul E_vdwl E_long Enthalpy Press 
    1000     0.999667     5192     0.750951 -15709.509553 -23493.419620  7783.910067   -62.963098 -23129.414299  -301.042223 -9483.596415     0.900492 
Loop time of 5.28763e-06 on 27 procs for 0 steps with 5192 atoms

run 0 post no # return_position back to old
WARNING: No fixes defined, atoms won't move (../verlet.cpp:55)
PPPM initialization ...
  using 12-bit tables for long-range coulomb (../kspace.cpp:340)
  G vector (1/distance) = 0.80564388
  grid = 36 36 36
  stencil order = 5
  estimated absolute RMS force accuracy = 7.8120263e-05
  estimated relative force accuracy = 7.8120263e-05
  using single precision KISS FFT
  3d grid and FFT values/proc = 4913 2592
Per MPI rank memory allocation (min/avg/max) = 5.425 | 5.447 | 5.490 Mbytes
Step Temp Atoms Density TotEng PotEng KinEng E_coul E_vdwl E_long Enthalpy Press 
    1000     0.994552     5192     0.750951 -15721.453602 -23465.529299  7744.075697   -62.439595 -23103.050588  -300.039115 -9677.829960     0.874127 
Loop time of 5.09078e-06 on 27 procs for 0 steps with 5192 atoms

group widom_test         delete
group noneq_run          delete
group noneq_run_rigid    delete
reset_timestep 800

group   solvent delete
group   water   delete
group   ions    delete
group   wall    delete
group   flying  delete
group   eq_run  delete
        
write_data restart_after_MC_3.data pair ij
System init for write_data ...
PPPM initialization ...
  using 12-bit tables for long-range coulomb (../kspace.cpp:340)
  G vector (1/distance) = 0.80564388
  grid = 36 36 36
  stencil order = 5
  estimated absolute RMS force accuracy = 7.8120263e-05
  estimated relative force accuracy = 7.8120263e-05
  using single precision KISS FFT
  3d grid and FFT values/proc = 4913 2592
log logfile_hneqMDMC.4
