LAMMPS data file via write_data, version 28 Oct 2021, timestep = 1800

5192 atoms
8 atom types

-9.525278051358015 9.525278051358015 xlo xhi
-9.525278051358015 9.525278051358015 ylo yhi
-9.525278051358015 9.525278051358015 zlo zhi

Masses

1 1
2 1
3 1
4 1
5 1
6 1
7 1
8 1

PairIJ Coeffs # lj/cut/coul/long

1 1 1 1 2.5
1 2 1 1 2.5
1 3 1 1 2.5
1 4 1 1 2.5
1 5 1 1 2.5
1 6 0 0 2.5
1 7 0 0 2.5
1 8 0 0 2.5
2 2 1 1 2.5
2 3 1 1 2.5
2 4 1 1 2.5
2 5 1 1 2.5
2 6 0 0 2.5
2 7 0 0 2.5
2 8 0 0 2.5
3 3 1 1 2.5
3 4 1 1 2.5
3 5 1 1 2.5
3 6 0 0 2.5
3 7 0 0 2.5
3 8 0 0 2.5
4 4 0 0 2.5
4 5 0 0 2.5
4 6 0 0 2.5
4 7 0 0 2.5
4 8 0 0 2.5
5 5 0 0 2.5
5 6 0 0 2.5
5 7 0 0 2.5
5 8 0 0 2.5
6 6 0 0 2.5
6 7 0 0 2.5
6 8 0 0 2.5
7 7 0 0 2.5
7 8 0 0 2.5
8 8 0 0 2.5

Atoms # charge

72 1 0 -8.448139096576591 -8.829301433927402 -9.195553736590533 7 -59 -39
1140 1 0 -8.275806013308705 -7.591178755241511 -8.850183965832422 -7 -27 -33
1141 1 0 -8.601657314516771 -8.66442147798927 -7.67227539235254 -10 -21 -16
1081 1 0 -7.632166897966439 -9.13662859043842 -8.16660387760065 -6 -20 -34
586 1 0 -7.561587951795997 -8.046074698792564 -7.690054328716423 -16 -16 -28
1284 1 0 -8.812836763316499 -7.675429387366734 -7.873198511497645 17 -34 -38
1083 1 0 -6.575791552760288 -8.501419496600553 -7.509678485949361 -41 -78 -34
9 1 0 -5.4154774089796085 -7.8880999605706865 -9.265325028117239 9 -4 -31
120 1 0 -6.823210333027418 -7.741635614428045 -8.332011535411702 1 9 3
4690 1 0 -5.4677249092055025 -9.300896488900129 -8.093526737852768 11 -30 -23
82 1 0 -7.166096500829018 -8.708844720946301 -9.13490516665821 10 0 -12
4613 1 0 -6.4614591848707805 -8.121085984829968 -9.482418587630464 16 -8 -18
4750 1 0 -5.947264541681474 -8.923032352619135 -9.144431767871465 -16 -26 -21
138 1 0 -6.637449411089707 -9.35079422649349 -8.35683546653073 -80 -76 -33
1146 1 0 -5.118210183163558 -7.945641068210319 -8.228317629439237 -1 6 4
5149 1 0 -4.4112275518609625 -8.315504575312179 -8.994357143481498 -6 -6 -41
526 1 0 -3.9756912616860443 -7.787130868244871 -8.267386056961401 2 0 -25
527 1 0 -4.8163717232426775 -9.317674534820663 -8.866328406070513 1 10 4
84 1 0 -4.328765780965238 -8.899666238388614 -7.86949604366152 13 -14 -19
1155 1 0 -9.29775918167035 -6.1443233677938265 -8.831859324592525 -3 -28 -40
58 2 1 -9.293016554928986 -7.359949117071172 -9.081104941139824 0 7 2
704 1 0 -7.489492604245472 -6.66531096788366 -8.950503417211738 14 -3 -17
712 3 -1 -7.803720228856799 -5.376583687574144 -7.532345102872804 1 7 3
67 1 0 -9.353426334984665 -6.616463272507685 -7.830490362935374 11 -16 -31
137 1 0 -7.8757685710601635 -5.7985292199592795 -8.558896455177827 24 -2 -29
701 2 1 -8.49187090523774 -6.067387127334699 -7.870060323146816 -4 8 4
780 1 0 -8.567267677659546 -6.687647614764399 -9.375128700310404 8 -20 -39
707 1 0 -5.694264967867428 -7.090885878793509 -8.705783604533408 1 8 0
728 1 0 -6.629105714902783 -5.329948390174095 -7.831859773948698 -126 -38 -31
148 1 0 -6.79677353358071 -5.67815288453898 -9.214599235370727 -103 -40 -50
581 1 0 -5.773173174607666 -6.163520650509324 -9.423766332860176 -8 -21 -21
133 1 0 -6.775784493211065 -6.656279692672722 -8.283370598105932 11 -24 -23
12 1 0 -5.523506007866269 -7.203252376347271 -7.67252726400512 -13 -7 -23
647 1 0 -5.9267053402016225 -6.062249560891833 -8.222783268101217 5 1 -9
5084 1 0 -4.622069196609241 -7.155556448767589 -9.10547239214609 16 1 -7
141 1 0 -4.795942441640062 -6.479628249339974 -7.987350845533406 3 -91 -63
139 1 0 -4.827581367768689 -5.649326475898517 -9.1638673585246 20 -14 -21
4751 1 0 -3.685955113959427 -5.3262206260354175 -7.527841721850367 -3 6 -7
530 1 0 -3.665330361144821 -6.198742668106787 -8.257840228966343 0 -1 -33
720 1 0 -4.655495567071758 -5.345127173511867 -7.712958583657913 -12 -16 -37
1235 1 0 -3.2248409068012442 -7.245900345213265 -7.539145781902405 -10 -28 -36
86 2 1 -3.8304665405985987 -6.001338168611484 -9.29964558855279 1 6 -1
696 1 0 -8.663765292412224 -5.105149149481254 -8.26107616493731 3 0 0
721 1 0 -8.514972375873523 -4.798517855157605 -9.37172291612052 10 -13 -45
767 1 0 -7.622069260512308 -4.086089820191494 -7.8479478457043275 -12 -14 -38
117 1 0 -8.520493152805924 -4.0981080467106 -8.567870636889126 9 -80 -78
710 1 0 -9.429477492287868 -4.321673467042584 -8.8662240563921 -1 4 4
132 1 0 -7.541587628501442 -4.364505975779792 -9.446651161044699 -98 -35 -40
4204 1 0 -7.52418305292875 -3.2721673350175373 -9.397245245937091 -16 -18 -47
783 1 0 -7.167344309223701 -4.915044421409722 -8.506576647152892 -1 -5 -23
63 1 0 -6.97011312548131 -3.9266045590105554 -8.625003690374172 -24 -85 -63
769 1 0 -5.84204270036473 -4.175429260666777 -8.769794607791702 4 9 3
643 1 0 -6.440716947150742 -4.21254593684927 -7.761253131215001 0 4 2
74 1 0 -5.8282817007108445 -5.106911036663332 -9.35120960768995 1 1 3
4762 1 0 -5.473593584324738 -4.174374378266526 -7.452128459672755 15 -30 -30
4207 1 0 -6.339388912543299 -3.192987280049473 -9.089410362020338 16 -13 -42
660 1 0 -3.9086832098952486 -4.832677472669225 -8.703281153815896 -4 -18 -27
77 1 0 -5.028220076269088 -4.668021332072034 -8.35637514307292 -19 -17 -31
69 1 0 -5.0368406366247855 -3.674620583968996 -8.33648274832051 0 1 0
4754 3 -1 -3.910761019593566 -3.5526251331468743 -8.761680932977365 -1 7 -1
4758 1 0 -4.077998395486688 -4.404051103654895 -7.736427382899554 10 -29 -28
1349 1 0 -3.899381649109148 -3.4781929801577975 -7.454413899369853 25 -14 -30
1713 1 0 -8.803815830121318 -7.611013610741601 -5.887547297512189 10 -5 -9
1143 1 0 -9.096937043749783 -7.901174095334774 -6.775037142385587 -9 -14 -27
645 1 0 -8.123535676907185 -7.567355869222999 -6.823488400547795 0 -19 -28
582 1 0 -8.334779609082588 -8.721865643667227 -6.2040543743140395 -13 -21 -32
1216 1 0 -7.692317049601046 -8.834734626522357 -7.005109505664986 1 7 -1
1211 2 1 -7.84223548635519 -7.833780610487277 -5.4590730541109025 0 8 1
651 1 0 -6.865517903764959 -9.392453276521142 -5.333462547207041 10 -9 -25
1163 1 0 -7.256450331455306 -9.325248628636198 -6.2655787480139 -2 7 0
1665 1 0 -5.765829131060768 -9.126363590977018 -6.9407264772344375 18 -6 -10
588 1 0 -5.670081895715645 -8.044288865336615 -6.857091407711599 11 -14 -30
595 1 0 -6.103642921189294 -8.809643943875647 -5.887790528257416 5 -1 -6
1226 1 0 -5.551978223633878 -7.6993433681323955 -5.666960263108912 1 7 2
589 3 -1 -7.111638766038483 -8.082419247491476 -6.589595021862249 0 6 5
714 2 1 -6.5852169254029125 -7.422198106234176 -7.320982246758001 14 -11 -7
1154 1 0 -4.0229418318628145 -9.308541265184074 -6.161136198070965 2 4 4
1100 1 0 -3.6942978107249678 -9.189180670456667 -7.138597830421371 -130 -59 -14
658 1 0 -3.4047549224586318 -8.212876802961897 -7.273833136454042 1 2 1
652 1 0 -4.366619928707436 -8.52867653961439 -6.86628850841712 10 -8 -27
1659 1 0 -3.398577708444946 -8.59025367515394 -6.197778699286749 -2 -23 -32
1230 1 0 -4.343025496322012 -8.004413054237144 -5.866299879584857 19 -14 -34
21 1 0 -4.764483122907534 -7.517296292324059 -6.622633449093194 0 9 2
698 1 0 -8.867973590329944 -6.606899173385444 -6.960785087028787 0 6 2
1811 1 0 -7.450362426109973 -6.596883133778683 -7.3562803472510465 -13 -51 -48
142 1 0 -8.014127255035026 -6.49585348341859 -5.8904312464363855 -20 -10 -31
1287 1 0 -8.614625150458314 -5.640526517385685 -6.729403774574514 1 0 1
80 1 0 -7.636457468725636 -5.555930847138574 -6.271269956457406 1 3 1
634 1 0 -8.971355716802604 -6.532490066887176 -5.489204029127446 -10 -15 -29
4106 1 0 -5.7984478138517135 -5.674441569692168 -7.146531751898613 -21 -75 -32
644 1 0 -6.835781373473481 -5.927554247022555 -6.944865737470339 14 -8 -31
653 1 0 -6.8027811733190715 -6.109522215762665 -5.881437478548561 1 6 2
1224 1 0 -5.615433234537013 -6.6061305576802205 -6.8311016895790715 18 -13 -20
1165 1 0 -5.969394535019943 -6.671761810973696 -5.878894767043829 14 -6 -29
719 1 0 -6.29067526960777 -5.369299521535659 -6.249233885716344 18 -5 -14
610 1 0 -4.311834682741311 -6.723748168581 -7.2110731583214935 24 -17 -35
1160 1 0 -4.754667065040534 -5.74063127300122 -6.57169566687246 -77 -63 -57
1227 1 0 -3.2373487680558988 -5.650633772877375 -6.101579580682873 -1 1 -25
1161 1 0 -4.00851899918639 -6.237973850856028 -6.248752608323129 -1 -9 -29
538 1 0 -4.032336203065377 -6.927000344470226 -5.399691097258872 7 -2 -3
85 1 0 -3.6202209065091173 -7.283339458833098 -6.381053544998389 -2 8 0
1865 1 0 -4.921233334763708 -6.789221084301237 -5.815702486052625 -18 -27 -40
662 1 0 -4.9129729922852565 -5.827108147595771 -5.540120923945218 11 -1 -8
664 1 0 -3.1978941225108093 -6.473295683112886 -6.973106139980063 10 -6 -17
1148 1 0 -8.482938159406993 -4.374297451405761 -7.079303898616466 15 -31 -20
777 1 0 -7.717754979729485 -4.13773982872978 -6.339996358770196 -5 -55 -45
705 1 0 -7.692240428804198 -4.816671607399611 -5.469516452944109 9 9 1
191 1 0 -8.565698012743843 -3.7224945393993707 -5.79576894328193 9 -3 -35
1786 1 0 -8.720348115595742 -5.0525204709932 -5.614366954176275 0 7 6
706 1 0 -6.8972170852985135 -4.627014437339704 -6.817723223232637 1 8 2
4210 1 0 -6.563931216611933 -3.9718927812782865 -5.853476615728643 8 -22 -33
78 1 0 -5.702272801856659 -4.331243272994395 -6.391552680798468 -4 -9 -39
1346 1 0 -6.569706704017443 -3.580630547265223 -6.843583722077992 12 -19 -32
1221 1 0 -5.507911646855112 -4.0756597358323585 -5.307011582961665 -59 -124 -52
146 1 0 -5.029013461273263 -3.46900505426844 -6.721111205034687 16 -10 -26
1351 1 0 -4.583405970721701 -4.434663609442271 -6.798254757689551 13 -24 -32
203 1 0 -4.808500032714464 -4.551816871945304 -5.754409878241621 -14 -20 -17
4744 1 0 -3.569087291531294 -4.6998054352418235 -6.639938201306125 -92 -73 -34
150 1 0 -3.949366305890988 -3.7066999873337023 -6.444806008479597 18 -22 -31
1208 3 -1 -7.799158116499927 -8.873275883256348 -4.893402392301259 19 -14 -13
1785 1 0 -9.184467796649505 -7.536922306884809 -4.430522158887051 -8 -2 -29
1790 1 0 -8.71575178606856 -8.087946581475364 -3.438437095620441 2 5 -4
1778 1 0 -8.689544995099455 -8.424294950221205 -5.240599636651037 0 10 2
1784 1 0 -8.134626711577893 -7.692716420331405 -4.379497267852248 6 3 -7
2873 1 0 -8.860473346567705 -8.880948599651244 -4.2435184714952054 18 -9 -24
1606 1 0 -5.713298127573782 -9.200746215768758 -5.048984979339872 17 -12 -29
1662 1 0 -6.711521065548524 -8.356767273138313 -5.261069339833783 12 -8 -32
1780 1 0 -7.2872926653550545 -8.413747398459627 -3.2587520140739326 -17 -85 -57
2238 1 0 -6.455831448201757 -8.851969537311298 -4.306324813907205 14 -16 -38
2359 1 0 -7.118522253958187 -7.867496109590567 -4.350460382530315 14 -20 -31
1158 1 0 -6.267408955710249 -8.025723199378726 -3.73426564328739 13 -12 -37
1805 2 1 -5.785985961707721 -8.146319684091587 -4.697861733875498 15 -2 -14
1742 1 0 -3.832998337293794 -8.979007256675404 -4.8211686510467455 14 -77 -65
2252 1 0 -3.8744000036135113 -7.943428340352131 -4.042058901229083 9 3 -3
17 1 0 -3.569780438730169 -7.921655949748937 -5.2137378976403035 6 2 -3
1151 1 0 -5.1117361633002485 -8.918443037357626 -4.152250868486347 0 7 0
654 1 0 -4.6791312146668425 -7.597006130912821 -4.813356933659405 21 -33 -60
1171 1 0 -4.736480244113774 -8.624320739595618 -5.1450812340548335 9 -25 -32
2256 1 0 -4.194864609847562 -8.707038472611375 -3.4766354878026076 5 7 -5
1222 3 -1 -5.167230875960023 -7.784421715371202 -3.9218253564389935 10 -7 -30
641 1 0 -9.307140084912117 -5.657754329302156 -5.086648151375328 -118 -69 -32
1849 1 0 -9.107284140887733 -5.946361091486346 -4.206585030301388 -98 -96 -30
646 1 0 -8.228154986178614 -6.882546343148044 -4.874490503469257 -2 4 2
1843 1 0 -9.06710887458486 -6.942327827704857 -3.7248950312827676 12 8 -4
1209 1 0 -8.148951475452225 -6.074056322516529 -3.9757970685367736 11 -8 -31
1271 1 0 -7.972742248637308 -5.712976819876062 -5.040632556237598 10 -26 -22
1909 1 0 -7.708530974079463 -5.364888725391178 -3.431559987956495 -91 -66 -54
1291 1 0 -5.639291582072592 -5.355761135433202 -4.570064581213358 39 -66 -57
640 1 0 -6.861045447050976 -7.2780391100979065 -5.290776772121424 1 -22 -38
1286 1 0 -6.822027391096271 -5.730431219215683 -4.1518080139880675 -3 -1 -4
1727 1 0 -6.240992631531415 -6.710366169031343 -3.7032484508341525 3 8 -1
1734 1 0 -5.9486329099414545 -5.710030832868982 -3.511808212144888 2 5 5
1277 1 0 -6.369504300151266 -6.266998956863892 -5.024866957436015 4 12 1
1145 1 0 -7.1244555348202185 -6.701616053521542 -4.518437270807497 -119 -49 -15
1721 1 0 -6.006519795332179 -7.194829813754536 -4.603380987547238 9 -13 -23
1744 1 0 -3.2577688522591397 -7.138913121334933 -4.440946265387932 -2 9 6
1728 1 0 -5.269128504444734 -6.366205408955742 -4.428229350790965 15 -1 -14
1863 1 0 -3.2647056244810644 -6.215459720368537 -3.6921046421348143 -5 -14 -30
1167 1 0 -4.226517275119659 -6.933859571579973 -3.7594880756814444 5 -18 -32
1304 1 0 -4.2352275992216795 -5.934797614484823 -4.589729252780315 6 -26 -32
2375 1 0 -4.840372705886085 -5.499843013357257 -3.702132667343023 2 -5 -33
579 1 0 -8.787154101038672 -5.058217387207206 -4.046788887466838 10 -1 -11
1988 1 0 -8.065629947635523 -3.5269322208491674 -3.5439200693498862 -110 -72 -21
642 1 0 -8.361695482582888 -3.613649975059444 -4.671338393709036 16 -10 -26
1293 1 0 -9.386470568467265 -3.4293731863324197 -4.918968596721041 1 5 -5
1347 1 0 -9.39526043582243 -4.400100918077019 -4.77777208163258 16 -1 -12
1285 2 1 -7.535670704771398 -5.020142992350606 -4.452561588144089 14 -11 -17
1798 1 0 -8.923474623264491 -4.091763696025874 -3.8706566173880397 15 -68 -59
722 1 0 -5.650459184609212 -3.388966620667529 -4.095377048206601 -6 10 -32
1860 1 0 -6.163460802524302 -3.3853591933248257 -5.11928415054374 11 -5 -13
144 1 0 -6.5485456180347414 -4.227453003385888 -4.6063343741604275 -13 -23 -39
1935 3 -1 -6.5724223228176415 -4.839655750700832 -3.744966258350932 2 -3 -5
1410 1 0 -6.430715329790776 -3.924155596365641 -3.354398203685854 -22 -20 -27
131 1 0 -6.617778894497162 -5.10249227341452 -5.21871000695611 5 12 1
1340 1 0 -7.347464562444251 -3.9128466789512806 -5.121792628993923 -94 -57 -71
1862 1 0 -7.3815256678698375 -4.328341222954858 -3.497260580510667 6 -16 -25
2389 1 0 -3.5815860215273805 -3.2025149337432555 -4.558728304751488 8 -20 -30
735 1 0 -4.694195372024925 -5.079954226743613 -4.800535007203974 0 -64 -81
1289 1 0 -5.272804390764317 -4.57100088895443 -4.069128174705702 5 4 -8
723 1 0 -4.495208746288413 -3.8866614015822503 -4.2030256820319725 -13 -10 -19
1939 1 0 -5.206369642280162 -3.809145614346941 -3.212806230061527 8 3 -3
1810 1 0 -3.7610837474320276 -4.990683546261883 -3.9123559443598013 -11 -8 -30
1299 2 1 -3.895199281913542 -4.121992075648373 -5.031081739789959 2 6 2
1799 1 0 -3.513424953833274 -3.9404777978785583 -3.4884652208360003 1 7 -1
2292 1 0 -7.805713687327753 -9.109811850477298 -1.093787556183756 46 -69 -59
1729 1 0 -8.494441307969833 -8.60125829739952 -2.0110869418338964 20 -31 -35
2225 1 0 -9.193139960330313 -9.375097680757012 -1.2075917097888758 11 -5 -33
2345 1 0 -9.144951224866748 -9.05427010111447 -2.9151987059900324 3 -31 -60
2237 1 0 -7.819861885944866 -8.044238988737044 -1.3564940873768163 -9 -12 -28
2241 1 0 -7.940554754604651 -9.155807346130908 -2.8271233496475014 5 4 -2
2365 1 0 -8.907201886209057 -7.71692330494993 -1.345622269077666 -13 -11 -34
2825 1 0 -6.710594351563135 -8.57023717529722 -1.2787300868191516 -2 -18 -37
1725 1 0 -5.552304053457383 -8.476524145066314 -1.8740595381154828 12 -11 -31
2236 1 0 -6.272584266778581 -8.636323966643184 -2.599488418288179 13 -8 -42
1738 1 0 -6.0406131502921205 -7.541463895465023 -1.9361791313133685 6 -18 -29
656 2 1 -5.769970776136962 -7.486912177144051 -3.0063061659673496 8 -5 -10
2180 1 0 -5.535672417961032 -9.402335796387838 -2.329718121508383 18 -9 -23
1156 1 0 -6.689858820857121 -9.345738415329045 -3.136179797430069 6 1 -10
1783 1 0 -7.1266113177643025 -8.340510171800322 -2.190179977509544 -111 -35 -63
1095 1 0 -3.7994058026560364 -8.870933139403071 -2.5144610217062757 4 -26 -30
2832 1 0 -4.378636433741647 -8.425307471431388 -1.7069847521093044 -96 -53 -27
2302 1 0 -4.794534635523967 -7.5284770295484025 -2.083801147240267 -12 -27 -46
1722 1 0 -4.193328319926908 -7.83059045587157 -2.9316096415395942 0 -11 -27
2307 1 0 -5.1359212411258275 -7.667449388763158 -1.1379962078610852 24 -9 -28
1804 1 0 -4.9969627518027355 -9.372448580229445 -1.4980501813564309 -4 -24 -42
2383 1 0 -3.641125937666427 -7.86223365186829 -2.0518468567481047 10 -16 -22
1737 1 0 -3.3937149790356944 -8.693519018318305 -1.3559498634652696 0 5 0
2300 1 0 -5.136920372320488 -8.378868765068617 -2.835028566659242 -7 -8 -26
1275 1 0 -8.915512272029739 -6.0733241902477415 -1.777486873333411 2 7 3
2295 1 0 -8.181744104625741 -6.876744298268036 -1.6238484229275414 3 5 3
2881 1 0 -8.180103805335099 -5.7543416069695805 -1.1371979339402907 4 9 0
1794 1 0 -8.130961409742088 -5.781181952349027 -2.309098740587661 -3 -33 -23
709 1 0 -9.162222503583015 -6.081336602720398 -3.1485278099253047 0 4 6
1720 1 0 -8.118435585000748 -6.7699688278715735 -3.080934068233286 0 7 1
1733 1 0 -8.885208628349645 -7.1441069952701595 -2.4938828023274255 0 8 2
1218 1 0 -6.9387497334529655 -7.144375278941424 -1.7753870897468067 0 3 0
1808 1 0 -7.226194732413434 -6.125673619862167 -2.075065771048956 11 -75 -62
1213 1 0 -7.042954959768596 -6.296947779761445 -3.154159665585525 16 -10 -24
2371 1 0 -6.933809879313614 -5.325768133567569 -1.3578598977427483 16 -5 -25
1739 1 0 -5.676363329165293 -6.050926841294829 -1.8663528734616979 -10 -23 -29
3018 1 0 -6.31888770038417 -6.473225873935935 -1.0600135598919713 -12 -20 -46
717 1 0 -6.347185536026899 -6.770608959026104 -2.5280287213539823 -13 -18 -44
2242 1 0 -7.202920484466784 -7.338814648472826 -3.1037243689404086 -7 -11 -24
2251 1 0 -3.4836423368408833 -6.787447656097484 -1.7916149823662246 -20 -16 -36
2956 1 0 -5.2283971622048995 -6.411642648185405 -2.7068831843279244 -12 -15 -34
1730 3 -1 -3.7441233525131095 -5.701197616553745 -1.9575672713048 5 -27 -24
2369 1 0 -4.558956969964337 -6.346378688618024 -1.5789832396100867 7 -21 -35
1800 1 0 -4.1003284959892055 -6.623205566165446 -2.64733660663014 2 8 5
2887 1 0 -4.028555127636308 -7.147953524623761 -1.102742810964773 -18 -22 -37
1731 2 1 -3.246747893006779 -7.123072229962157 -2.959749038473425 0 7 3
661 1 0 -3.9580107346777007 -5.4596111582392135 -3.001219122177607 4 -53 -64
1787 1 0 -9.2787837910346 -4.758269539866881 -1.3220481729856213 16 -28 -37
1217 1 0 -9.170804879615167 -5.167001382847384 -2.3743744638658906 4 9 -1
2424 1 0 -7.572292366416777 -4.886389305872987 -2.55008291536377 14 -11 -26
1853 1 0 -7.762002735752234 -3.400109866627774 -2.54423952931877 17 -8 -10
1801 1 0 -8.923223801052876 -3.80577143979892 -2.082137124088764 16 -29 -32
1861 1 0 -8.342231782388325 -4.560325629458066 -1.8371619526611778 -13 3 -30
1855 1 0 -7.972757600591884 -3.6073203537770797 -1.1847521015878608 -19 -45 -29
1791 1 0 -8.596815978825184 -4.266936109612559 -2.9081441639598964 -59 -78 -33
1924 1 0 -7.125464642183677 -4.071113132205265 -1.8361694897378527 12 -1 -14
2435 1 0 -5.813877484100695 -4.108023119991612 -2.317983004729163 8 -26 -31
2953 1 0 -6.1230789491974615 -4.72001972482928 -1.6241238426611224 -120 -48 -34
2441 1 0 -5.377265261971896 -3.549028984498945 -1.5564720064358792 -116 -68 -70
1928 1 0 -6.5510224894539 -3.3023007971259233 -1.373831443426095 21 -6 -16
2364 1 0 -6.616058334644763 -3.3873684783754827 -2.5136185145478285 18 -4 -14
2438 2 1 -6.560878084126118 -5.158016086791039 -2.3960608286785297 1 11 -2
1352 1 0 -5.670193106247159 -4.927997276158485 -2.8878476397473314 -2 7 4
2378 1 0 -4.623916424126963 -5.242639634814012 -2.215527190557636 -11 -11 -29
1726 2 1 -4.931505024954958 -4.573780554510103 -1.1921658549235024 8 -1 -3
1933 1 0 -4.291339317116236 -4.355598587445862 -3.003657862876428 6 4 -3
1298 1 0 -4.081076882776588 -4.165793270265502 -1.6443157405872793 -39 -96 -28
1943 1 0 -4.851370016924805 -3.7837951789676882 -2.34007214232608 -1 8 0
1873 1 0 -3.190222448523328 -3.523027356881179 -1.207342878470601 13 -10 -16
2357 1 0 -9.510206510237227 -8.997808412546924 -0.20182511323149255 -114 -38 -42
2247 1 0 -8.148532282196722 -8.707790227635078 -0.09303818979832458 -5 -17 -44
1718 1 0 -9.006534112433663 -8.022085796723262 0.6004018595711996 18 -15 -25
2888 1 0 -7.701883623225828 -7.939610366681331 0.613988799117412 5 3 -8
2354 1 0 -8.105860272969828 -7.463090273663249 -0.3851327887524357 -2 7 2
2757 1 0 -8.254995384262296 -9.288244523603577 0.9341392133898893 0 6 -3
2871 1 0 -9.38970561521569 -9.00397578070398 0.890813114412603 -7 -14 -34
2301 1 0 -6.246018884916511 -7.519415447700321 -0.8663407030705467 16 -24 -33
2810 1 0 -6.711614446880267 -9.114147538461832 -0.3775758676390586 1 -15 -26
2762 1 0 -5.753189230179786 -9.446893845015223 0.04787494497596911 -98 -61 -45
2296 1 0 -7.272884361878242 -9.219917692879497 0.41676594210776685 0 4 5
2767 1 0 -6.284217877436185 -8.231981117967724 0.0705810395842268 17 -3 -30
2883 1 0 -7.240243612685271 -8.022022967504224 -0.49394411149704376 -15 -79 -56
2306 1 0 -5.720749801643583 -8.577866836651278 -0.8485779998958636 23 -6 -22
2890 1 0 -6.708397348769167 -7.674502888801019 0.9465229643343746 12 -4 -13
2899 1 0 -3.7503108089495756 -7.909100881418052 -0.029456413337933626 6 -67 -69
2373 1 0 -3.302464515708606 -8.857407303100203 -0.38000325530105494 10 -20 -36
1747 1 0 -4.418052733932923 -8.73819966642154 -0.03961505931799496 6 3 -1
1795 1 0 -5.1837946851492935 -7.970155406473734 -0.08852375705802669 16 -16 -28
2254 1 0 -5.142233472758208 -8.895639945006407 0.6526234277430872 13 -5 -6
2897 2 1 -3.2691203956436876 -8.261826848398936 0.8106230340952221 3 7 -2
2308 1 0 -3.679158282930987 -9.299174488277227 0.5783434316926138 -8 -59 -78
2381 1 0 -4.69787166728153 -7.574226184776773 0.9968863577334642 -21 -5 -34
2423 1 0 -8.98150625585605 -5.2990496322765885 -0.350302694779573 20 -54 -52
2355 1 0 -9.095948499231602 -6.65411721668629 -0.7726855797182623 8 -18 -33
2478 1 0 -8.480239999201785 -6.0034634617867 0.8256131340462974 -3 8 -1
1793 1 0 -7.939983084947678 -6.299424944982576 -0.058312899939774857 3 10 2
2418 1 0 -8.823169591737901 -7.128031233322982 0.22277119696320613 4 2 -5
2938 1 0 -7.6126125658673205 -6.937759658684205 0.999096370164588 27 -82 -52
2872 1 0 -7.119487092663451 -6.973164540865921 0.10466568789639846 -117 -37 -42
2955 1 0 -5.949730454429096 -7.100933535612514 -0.026147656219851403 12 -4 -11
1157 1 0 -7.384916803337956 -6.804820618120947 -0.861222818560194 26 -6 -14
1283 1 0 -7.207188086677033 -5.792643602326111 0.6597410221206682 1 7 -1
2303 1 0 -5.293282918592052 -6.473729553406926 -0.8585284848032141 -5 -20 -20
3014 1 0 -5.504420885961104 -6.0675135827851525 0.052049434495817164 1 3 1
3070 2 1 -6.173645392788201 -5.631734261950622 0.7208187739978678 0 9 2
2360 1 0 -6.653215894294638 -5.634963791279196 -0.32706967990621943 -5 -49 -45
2499 1 0 -4.709034666251007 -6.990936180365645 -0.0495482674489731 13 -9 -13
3024 1 0 -3.1767632077123946 -5.570504771828573 0.892470937795726 -13 -23 -26
3533 1 0 -3.9109088073222735 -6.9290939660760555 0.6996038223015203 0 5 -4
2309 1 0 -3.500690195791793 -5.888363235561482 -0.7527710471078221 -4 -9 -32
2372 1 0 -4.09904455107625 -6.0214925032346915 0.29503885969049476 3 0 -38
1858 1 0 -4.648188934836881 -5.570620927611916 -0.8055709469323357 17 -6 -31
2877 1 0 -9.103226505602183 -5.063026562950431 0.588054939342466 -7 -5 -35
1724 1 0 -7.8010052186001735 -4.970164409819635 -0.48540681139944447 1 -23 -33
2482 1 0 -9.065206544710291 -3.733046107444133 -0.9580584213887661 -76 -71 -21
1719 1 0 -8.028575537016328 -5.040562516756181 0.544228476600086 13 -12 -36
2479 1 0 -7.587464003327281 -4.0696273517607935 0.01034697939452369 -15 -8 -25
3080 1 0 -7.9373929700741055 -3.653205194168108 0.9563021547477137 10 -3 -23
2428 1 0 -9.118477584966985 -3.8075692072198706 0.8236760741185637 16 -7 -19
2481 1 0 -6.961825506907665 -4.793945033018301 0.3225773896290738 8 2 -9
2951 3 -1 -5.692397338649864 -5.282181110878416 -0.8227870871762705 0 7 2
2426 1 0 -7.01750237296576 -4.43153984336705 -0.8068985571479177 6 -18 -43
2885 1 0 -5.691998903116214 -4.23920582705029 1.0378129985201399 -1 9 2
2508 1 0 -5.606811731806482 -3.628862444494173 -0.4887221586023448 -1 4 4
2433 1 0 -5.795713492971758 -4.554421642280064 -0.02878491484588984 -9 -7 -29
2952 1 0 -6.65901372671656 -3.5608830225629315 0.39613370558916816 -8 2 -37
3023 1 0 -3.6213490403561477 -3.1880277008690583 0.3396505627748322 6 -13 -34
2437 1 0 -3.8042817928730397 -4.691997253781695 -0.8646179800350854 -122 -62 -13
2884 1 0 -4.957849097695553 -5.038746465575926 0.05768557699404137 5 5 -4
1932 1 0 -3.246380052407834 -4.024296247004158 -0.201621093088656 -121 -64 -31
3027 1 0 -4.3415091965409305 -3.9348497757057896 -0.3598674617442497 -1 10 3
2379 1 0 -4.684299495002009 -4.193793342847303 0.6932255964491976 12 -5 -8
3596 1 0 -4.343431734716636 -5.154144752484974 0.9866469943147617 4 -35 -19
3393 1 0 -9.259519347037372 -7.993617672652819 1.7743190227064742 -102 -46 -41
3448 1 0 -8.758243269821739 -9.220488683527295 1.8670409752959947 -16 -33 -39
3964 1 0 -8.422404101036943 -9.36941283246832 2.853989105640949 4 -1 -6
3968 1 0 -7.6402059205478325 -9.493839447628508 2.2304525964479414 2 10 1
3004 1 0 -8.075390370531638 -7.857949359543986 1.5852964677965902 -4 8 2
3320 1 0 -8.94100284901135 -8.382520461757133 2.629923304606516 6 6 -5
3977 1 0 -5.5114957865814125 -8.479070137755526 3.110465712259223 18 -12 -28
3402 1 0 -7.145467462108199 -8.52054673101795 1.435864774142116 -2 -13 -31
3398 1 0 -6.609795276766422 -9.301488425616048 2.064779407852035 -19 -49 -30
2954 1 0 -5.656890054409887 -8.04309215559935 1.1996030472286916 6 -13 -36
2368 1 0 -7.315495390306749 -7.726101124084652 2.4147898536533567 -4 -8 -29
2879 1 0 -6.327529920854179 -8.268550254057963 2.0703827784144564 1 5 3
3399 1 0 -6.184436059915942 -8.930252726822207 1.1233983977773503 -58 -89 -53
3530 1 0 -3.2834221552409346 -9.089132773316864 2.780373539597913 9 3 -5
2367 1 0 -4.336695609567405 -8.507542151566634 1.1760830371909365 9 -27 -38
3406 1 0 -3.3017489884195927 -8.956608021550364 1.6213154728774788 2 8 1
2759 1 0 -4.409036577738975 -9.465154358257497 1.4077122755249045 14 -17 -31
3984 1 0 -3.24089575277027 -7.6717086427509855 2.529025607718264 12 -23 -33
2961 1 0 -3.3378084472869043 -7.498335258461191 1.5051109116090828 18 -41 -56
2886 1 0 -5.20567482922303 -8.875819675785026 1.7287051588006186 8 5 -11
4036 1 0 -4.1619683788615776 -9.120550795390988 2.2918222985918852 -22 -65 -66
2958 1 0 -4.410951696912862 -7.968820862927903 2.0739267790525107 4 4 -2
3389 1 0 -8.795937769622807 -7.130712543885043 1.4121151418174729 24 -8 -29
3509 1 0 -8.242991544377062 -7.202724088641106 2.382478629262905 -2 -13 -38
4027 1 0 -9.229213760980274 -7.059312866288431 2.669967097591226 18 -3 -12
2878 1 0 -9.398532949444085 -5.445908326169892 2.2397466146604366 -22 -12 -32
3005 1 0 -8.37818568517608 -6.269446772994751 1.9590098186016573 1 10 1
2948 1 0 -7.628992766531067 -5.5827750143084645 2.4679218734975734 20 -61 -64
3608 1 0 -6.494262838893375 -5.619107048304576 2.3966780624303143 -13 -23 -50
1789 1 0 -5.871996261409184 -7.018235531207338 1.0997334261206946 0 5 5
4086 1 0 -5.952432850477905 -7.370240529711858 2.8596502648581112 2 6 2
2425 1 0 -7.126468351340355 -6.664036661996475 2.684465578648225 11 3 -10
4544 1 0 -6.5292234070827355 -7.297898416633009 1.9218430874056018 19 -6 -22
3707 1 0 -7.0840341684381025 -6.2824294907132385 1.6926116186331492 2 9 2
4029 1 0 -5.968127722269555 -6.575838263351149 2.116168354179895 16 2 -19
3467 1 0 -5.187954335971599 -7.3409614000004355 1.8713916169779903 8 -1 -12
3403 1 0 -3.8542426899998814 -6.14341062149638 2.6967373335205105 -4 4 3
3457 1 0 -5.085389560831831 -6.223597640663495 1.310470388433431 4 -3 -39
3453 1 0 -5.23930014836537 -5.592533948349951 2.5021814893844363 14 2 -14
2822 1 0 -4.17973986328399 -6.715098537783142 1.6731343093145716 3 -10 -25
2891 1 0 -3.890310355334692 -5.329522773983017 2.039899711585026 -105 -35 -74
2943 1 0 -4.749031661735563 -6.9908037124901075 2.7164123226229937 -3 4 -2
3003 1 0 -9.015146485302225 -4.610394752820616 1.619675818813314 26 -3 -32
3069 1 0 -7.7524730633127765 -3.656104821194526 2.527814440834429 0 11 2
3066 1 0 -9.279044695413416 -3.769054045495082 2.1411424980102813 -12 -7 -37
2949 1 0 -8.40083408881712 -3.1830271591102983 1.851605951704808 14 -8 -11
2361 1 0 -8.325767331508025 -5.266539762973183 1.610527459333333 -11 -15 -23
3706 1 0 -8.35053696957846 -4.8029871160212 2.6960432473653064 -110 -29 -33
3020 1 0 -5.939755353074812 -4.806832434826559 2.039498581276745 -15 -23 -30
3025 1 0 -7.16613537327262 -4.626399584153741 2.647379517456541 -14 -29 -36
1921 1 0 -6.993620576637233 -5.108333977159845 1.6142554334374877 1 0 0
2376 1 0 -6.788836844305691 -4.008647500869703 1.6164976458695837 0 7 2
1925 1 0 -6.022088603924633 -3.809946053478081 2.7013619403050284 -4 8 -1
3021 3 -1 -3.681339153693305 -3.930061600078201 1.5355756975882489 -1 8 4
2962 1 0 -4.338491583996442 -4.413454871168453 2.757278567684805 16 4 -13
2500 1 0 -4.8241306257273 -4.5396873523734484 1.7947678249987433 -4 -10 -38
3595 1 0 -5.104541498406002 -3.1807207928561914 2.9632992087919123 -4 1 -39
3470 1 0 -3.685250837540785 -5.18002729066714 3.1356531559141585 21 -4 -20
2495 1 0 -5.171643333557477 -3.2691787160548587 1.756843234832116 6 -19 -43
2442 2 1 -3.8002176547776148 -3.224089817385504 2.4950625008063425 17 -5 -18
2811 1 0 -8.768728728286924 -8.711882212345731 3.767591728920601 17 -8 -24
3907 1 0 -7.717274748757658 -8.080409260632015 5.284027007331332 -114 -66 -63
4610 1 0 -8.22460491294414 -8.909545832338312 4.8453625220117384 2 -23 -16
4680 1 0 -8.583914058154255 -7.854282088779228 4.433807083370934 0 0 0
2880 1 0 -7.54840993055389 -8.477967665919387 3.1866058170982146 12 -7 -17
2944 1 0 -9.410135592224425 -7.769545986668927 3.5562655385255924 -84 -52 -34
2939 1 0 -7.850754242862658 -7.484093276566066 3.3335004847866267 8 -2 -16
3451 1 0 -7.401102180932772 -8.121837013892444 4.363821691846614 10 6 -9
4042 1 0 -5.78309500080729 -9.034384017958542 5.171986454620944 7 2 -4