LAMMPS data file via write_data, version 28 Oct 2021, timestep = 200

5192 atoms
8 atom types

-9.525278051358015 9.525278051358015 xlo xhi
-9.525278051358015 9.525278051358015 ylo yhi
-9.525278051358015 9.525278051358015 zlo zhi

Masses

1 1
2 1
3 1
4 1
5 1
6 1
7 1
8 1

PairIJ Coeffs # lj/cut/coul/long

1 1 1 1 2.5
1 2 1 1 2.5
1 3 1 1 2.5
1 4 1 1 2.5
1 5 1 1 2.5
1 6 1 1 2.5
1 7 1 1 2.5
1 8 1 1 2.5
2 2 1 1 2.5
2 3 1 1 2.5
2 4 1 1 2.5
2 5 1 1 2.5
2 6 1 1 2.5
2 7 1 1 2.5
2 8 1 1 2.5
3 3 1 1 2.5
3 4 1 1 2.5
3 5 1 1 2.5
3 6 1 1 2.5
3 7 1 1 2.5
3 8 1 1 2.5
4 4 0 0 2.5
4 5 0 0 2.5
4 6 1 1 2.5
4 7 1 1 2.5
4 8 1 1 2.5
5 5 0 0 2.5
5 6 1 1 2.5
5 7 1 1 2.5
5 8 1 1 2.5
6 6 1 1 2.5
6 7 1 1 2.5
6 8 1 1 2.5
7 7 1 1 2.5
7 8 1 1 2.5
8 8 1 1 2.5

Atoms # charge

581 1 0 -8.47234159753727 -7.645881592469309 -7.8798783996417345 -8 -21 -21
121 1 0 -8.927424063743638 -7.618538265277177 -8.82825645849699 5 -16 -39
591 1 0 -7.660622697298549 -8.964766325455015 -9.491127793817045 -6 -20 -46
72 1 0 -8.509986452918445 -8.733981557311076 -8.924911709499813 7 -59 -39
57 1 0 -8.961255141381605 -8.594265220438803 -8.096967456527905 9 -23 -43
1083 1 0 -6.887299933657979 -8.49710001309171 -7.9348596973080205 -41 -78 -34
9 1 0 -5.784540579768028 -8.477543268902062 -8.186971345581558 9 -4 -31
652 1 0 -6.33699310393683 -7.719656007912765 -7.40945347961487 10 -8 -27
657 1 0 -6.253011062552577 -9.182079693520102 -7.499334813919977 7 -6 -20
583 1 0 -6.750079557243999 -8.626373121404631 -9.067478470496747 0 3 2
1089 1 0 -6.083525128325923 -7.6447562754011775 -9.423095415184616 9 -1 -10
526 1 0 -5.385927332548488 -8.420618046570459 -9.20540921789365 2 0 -25
21 1 0 -4.680348907729781 -8.480224170658083 -8.267012627972736 0 9 2
5149 1 0 -3.657529583385616 -7.80862318262788 -8.638307880687771 -6 -6 -41
12 1 0 -5.26271664084056 -8.008358388303826 -7.514617379964372 -13 -7 -23
75 1 0 -5.139428668985822 -9.316688729692256 -7.892269490964587 9 -22 -27
603 1 0 -3.2987792090430674 -9.23499704349226 -8.79174704957867 6 -25 -31
592 1 0 -3.667573515011547 -8.57656299420371 -7.915687157938354 -10 0 -21
525 1 0 -4.369565330018756 -8.433765968658662 -9.326448511906069 17 1 -4
4730 1 0 -9.518037990312314 -6.695594590507812 -8.775791155041347 -70 -56 -36
4682 1 0 -7.864796745937763 -7.301919895590174 -8.618914337470967 -7 -17 -49
68 1 0 -8.489140991891826 -6.423842823563634 -8.949975649118656 5 -13 -30
117 1 0 -8.989934948186802 -5.665739275051822 -8.39650615511346 9 -80 -78
711 1 0 -7.577334996323638 -6.272227474662729 -8.298030485973099 0 6 3
647 1 0 -8.55822795010958 -6.5891926002368635 -7.747090054384482 5 1 -9
4210 1 0 -8.262278727850815 -5.572246730775766 -7.677723867313992 8 -22 -33
4093 1 0 -9.355039854493135 -5.639995772747527 -9.266750314760372 6 5 -35
76 1 0 -8.068572138566909 -5.431827876098759 -8.951108504950408 2 -13 -14
73 1 0 -5.8037940037316185 -7.323664992751047 -8.274100979183148 0 1 1
138 1 0 -6.827183804418999 -7.385815992001643 -8.345410239545384 -80 -76 -33
71 1 0 -6.5955719148337595 -6.116790188213371 -8.239175907427173 -16 -15 -46
4750 1 0 -5.965730961358587 -6.661197365787444 -9.101963055331643 -16 -26 -21
141 1 0 -5.338841113855454 -6.079144718813303 -8.157750602097792 3 -91 -63
704 1 0 -6.974991789792117 -5.631514145261571 -7.462105310559103 14 -3 -17
82 1 0 -6.984810681848194 -6.681108176721018 -9.067561577570162 10 0 -12
133 1 0 -6.075176017634787 -6.7705204509365196 -7.534474040880402 11 -24 -23
74 1 0 -6.787444755044789 -5.527896058313051 -9.443231817907606 1 1 3
4689 1 0 -4.849413729295485 -7.3966327447863565 -8.984932621550193 18 0 -24
17 1 0 -3.229567428796923 -6.860666214170741 -8.041772927464331 6 2 -3
4622 1 0 -4.491496340422313 -6.733173443579925 -8.009825957131378 7 -19 -24
83 3 -1 -3.609333358279834 -5.812702803386756 -8.026796174108997 -1 10 -1
4694 1 0 -4.2548549235135384 -5.9999256731629815 -8.93153626928579 0 4 2
20 1 0 -3.2858681384997475 -6.876378941130119 -9.31925446343923 13 -5 -17
63 1 0 -8.728666605456558 -4.693509513642305 -9.282720158846965 -24 -85 -63
4792 1 0 -8.75622010534473 -3.5329833406863873 -8.883977674031243 -11 -15 -49
769 1 0 -8.620037281826423 -4.583347056875602 -7.5563661824475306 4 9 3
785 1 0 -7.803406393879336 -4.120456641265435 -8.756246603573793 -108 -16 -7
706 1 0 -7.543613591607879 -4.403980039591483 -7.467898677423722 1 8 2
191 1 0 -9.352628395756186 -3.734595220803961 -7.974701813841569 9 -3 -35
696 1 0 -7.153764574545724 -5.012284972511565 -8.35665785263037 3 0 0
135 1 0 -6.14498905184651 -5.078497347478824 -8.282566621138564 -14 -31 -33
780 1 0 -6.547960777199725 -4.356627500510884 -8.950034130538192 8 -20 -39
78 1 0 -6.451549999156721 -4.122989142044448 -7.915309477382322 -4 -9 -39
643 1 0 -7.167489722940957 -3.3311777425485314 -8.399500580183865 0 4 2
148 1 0 -5.413357440897288 -4.185569560116604 -7.941170627384964 -103 -40 -50
198 1 0 -7.32045823672121 -3.4955317816273395 -9.401872470637164 10 -8 -31
4163 1 0 -5.716832125571861 -4.596707033253965 -9.437605842026763 7 -1 -12
4733 1 0 -6.166491996330213 -3.4444978636113976 -8.633099241595477 3 -16 -37
81 1 0 -5.528783497019015 -3.559321049349854 -9.516040568918822 13 -25 -32
664 1 0 -3.187471699653509 -4.30473572843865 -8.115264378110345 10 -6 -17
728 1 0 -4.63674733020921 -4.486005394416558 -8.774451143345788 -126 -38 -31
4751 1 0 -4.5219720270030335 -5.199200925099834 -8.021015258964942 -3 6 -7
87 1 0 -4.154373111422736 -4.276369678865009 -7.416919061655209 5 5 -2
4695 1 0 -3.688537903468607 -5.125792934408739 -8.859930269303 0 3 0
4747 1 0 -4.13062727959836 -3.2375005630172713 -8.224590432983529 15 -3 -13
202 1 0 -3.4269127334117098 -4.007020844015382 -9.127766451562566 22 -13 -32
77 1 0 -4.406126483979932 -3.393864898865609 -9.246662334030004 -19 -17 -31
1081 1 0 -8.666497195594085 -9.297052400500162 -7.1810396402089065 -6 -20 -34
587 1 0 -7.70909121734922 -9.120623355832024 -6.257588446139139 20 -4 -31
1141 1 0 -8.347948134195478 -8.184718319326045 -6.921928394781757 -10 -21 -16
644 1 0 -8.591570860839205 -7.930950690049626 -5.765167455625158 14 -8 -31
1216 1 0 -7.899809257438674 -8.647335730185766 -5.35173686962553 1 7 -1
698 1 0 -9.187627801008992 -8.678875051561159 -6.423998393664325 0 6 2
580 1 0 -8.649039481386934 -9.42456348251064 -5.916110595873152 13 -10 -29
1146 1 0 -6.909935385235189 -8.5655545864067 -6.831561771077975 -1 6 4
654 1 0 -5.858607388552469 -8.370513410301083 -6.655389094990683 21 -33 -60
1805 2 1 -5.480866508181975 -8.31707314877144 -5.659035218129676 15 -2 -14
640 1 0 -6.970745057713259 -8.391102763405877 -5.701609731410589 1 -22 -38
1154 1 0 -6.172113235392711 -9.165211457108912 -5.97482947227304 2 4 4
1673 1 0 -4.144027773217265 -9.233326150233449 -7.359776692612619 6 1 -2
658 1 0 -3.4221777277704213 -7.515205861276544 -6.286307886545137 1 2 1
1171 1 0 -3.588399394557342 -9.235683046888498 -5.331490324697383 9 -25 -32
1665 1 0 -4.8430131494809245 -8.792109866435739 -6.751389454051298 18 -6 -10
84 1 0 -3.5494575732446934 -8.61103726657257 -6.67128047841214 13 -14 -19
1220 1 0 -4.901336370368664 -7.669792045208368 -6.435077596110645 1 10 0
1160 1 0 -4.10418672681203 -8.372475419773632 -5.867851706556652 -77 -63 -57
1100 1 0 -3.9064144334215496 -9.505620360017792 -6.295041349476032 -130 -59 -14
1162 1 0 -4.763912851707159 -9.144642004503295 -5.686351181878863 0 4 1
655 1 0 -4.2192016731787865 -7.94549687119264 -7.2551846491225715 -6 -6 -48
645 1 0 -9.431805978129267 -5.983350549804028 -5.686343414141413 0 -19 -28
702 3 -1 -9.521233491112346 -6.904059834034057 -6.540513166809769 21 -2 -9
120 1 0 -8.302158347324946 -7.080668907177523 -6.921255430736843 1 9 3
1155 1 0 -8.770097183166396 -5.807274695083934 -6.615582621116415 -3 -28 -40
714 2 1 -8.467165377575606 -6.694510377467937 -5.823325249380395 14 -11 -7
1275 1 0 -8.434420794909398 -5.496668458831486 -5.642281230082124 2 7 3
707 1 0 -7.727632111796102 -6.30027693991817 -6.378330314721631 1 8 0
653 1 0 -7.451484867668146 -7.3035886075944445 -6.0516381825175944 1 6 2
586 1 0 -7.237576148536758 -6.803113685262947 -7.0836866588979674 -16 -16 -28
589 3 -1 -6.173745342608166 -7.393094811138504 -6.327481788360949 0 6 5
142 1 0 -6.777138415212279 -5.385759713809621 -6.332822767120531 -20 -10 -31
203 1 0 -5.697433381983304 -5.417066252155027 -7.077006959770369 -14 -20 -17
1222 3 -1 -5.456792457906201 -7.188545533747274 -5.551848239863115 10 -7 -30
1277 1 0 -5.793925745352744 -5.833643510173226 -5.5663172896272455 4 12 1
660 1 0 -4.181552445214821 -5.527216001460032 -6.95463605036087 -4 -18 -27
1165 1 0 -4.50441317587039 -6.564534872231853 -6.185380651008885 14 -6 -29
720 1 0 -5.1310930249974485 -6.803229420862706 -7.158902167551099 -12 -16 -37
1161 1 0 -3.9218300715533916 -6.889966663497631 -6.982001997905768 -1 -9 -29
1227 1 0 -3.4345000283704503 -6.06196960064208 -6.380575579100383 -1 1 -25
1802 1 0 -4.975912581165301 -5.425694290608756 -6.082642221313147 -1 -11 -23
767 1 0 -9.215987812784196 -4.817419219258188 -6.085074251941006 -12 -14 -38
777 1 0 -8.381464807928827 -3.6989653959571633 -7.080333832754601 -5 -55 -45
642 1 0 -9.375711543598932 -3.631731892810578 -6.823494081137159 16 -10 -26
705 1 0 -9.328248354739916 -5.1285309318238435 -7.069113426833541 9 9 1
1287 1 0 -8.92418798522014 -3.7434592285708432 -5.822291498555391 1 0 1
713 1 0 -8.193208088555805 -4.569778954286259 -6.403149256165241 14 -7 -12
1346 1 0 -7.890409625167187 -3.859201233574743 -5.494988730790095 12 -19 -32
719 1 0 -5.839464123894065 -3.335610173282179 -7.045099803971526 18 -5 -14
131 1 0 -7.100156028239124 -4.317037867813013 -6.334909159948763 5 12 1
716 1 0 -6.000012819195661 -4.487537387365394 -7.002587172497525 1 6 -3
725 1 0 -6.0077291214362045 -3.860845351879843 -6.160304952693287 -3 7 -2
774 1 0 -6.880609973499562 -3.316836379198305 -7.381816228734227 15 -5 -13
140 1 0 -6.705863933504382 -3.760359644112275 -5.397349837127 -5 -5 -21
1285 2 1 -7.102394964804642 -4.869513554568857 -5.480992961206985 14 -11 -17
717 1 0 -5.977912414933184 -4.587713145561397 -5.389020177006537 -13 -18 -44
144 1 0 -4.936719842331109 -4.255115513515108 -5.691691957249197 -13 -23 -39
665 1 0 -3.224325963916484 -5.2095081933742104 -7.127238252393592 13 -4 -11
731 1 0 -3.2951347816897774 -4.117867098407668 -6.780734981212294 1 9 4
661 1 0 -3.3671935170704703 -4.323129599441826 -5.572708088801782 4 -53 -64
1219 1 0 -5.125056677129445 -3.2956745012819497 -5.604967678773421 -9 -24 -35
723 1 0 -3.7277451399903536 -3.3276635456047186 -5.729807245997398 -13 -10 -19
4744 1 0 -4.0450831543747 -3.396176043975381 -6.928670072592848 -92 -73 -34
1289 1 0 -4.015035574692115 -5.035744106721104 -5.990745939738446 5 4 -8
146 1 0 -4.8279711909707865 -4.158005737682065 -6.6827316290907754 16 -10 -26
582 1 0 -9.002792148224188 -9.454843667539231 -3.928879763173786 -13 -21 -32
1729 1 0 -7.728275127768706 -8.900141188774722 -3.4179569832980685 20 -31 -35
1657 1 0 -7.87065385952138 -9.364853659963485 -4.379005008943758 10 2 -3
1147 1 0 -9.254023352714993 -8.656930909432099 -5.220106641846241 -9 -18 -35
2235 1 0 -8.564911957585368 -8.582307227944874 -4.182193168525511 5 -20 -36
636 1 0 -9.28247939224323 -7.683491823003313 -4.628474515628968 -92 -37 -16
1211 2 1 -7.484440406997209 -7.7057958913835085 -3.699133468786268 0 8 1
651 1 0 -7.048513254425112 -9.338780007160423 -5.161893490827701 10 -9 -25
656 2 1 -6.179829195197112 -7.697704065768783 -5.124665964176484 8 -5 -10
1208 3 -1 -7.121092405520417 -8.644634032105893 -4.331224247429699 19 -14 -13
1156 1 0 -6.165582858593602 -9.213443863517492 -3.8768061315033333 6 1 -10
1151 1 0 -6.172553495814133 -8.999807194776439 -5.00325138987827 0 7 0
1158 1 0 -6.419182684572943 -8.26356248230673 -3.437723258704732 13 -12 -37
1728 1 0 -5.352838098836999 -8.69433644713872 -4.296842547322286 15 -1 -14
1153 1 0 -5.1322923647715815 -9.52418010016519 -3.7478434046974543 15 -8 -18
1152 1 0 -5.062685676237839 -8.375404929078618 -3.2225647679155935 1 6 1
1725 1 0 -4.239235742219547 -7.536763396118941 -3.232677978481021 12 -11 -31
2253 1 0 -3.270404518558789 -9.234716094702424 -4.2379069100783555 15 2 -16
1722 1 0 -4.232731342469951 -9.040118293892297 -3.9096179965039974 0 -11 -27
2252 1 0 -3.3295498054771366 -8.101816652301709 -3.453379416148032 9 3 -3
1659 1 0 -4.283142776407291 -8.105070574955162 -4.129152499620191 -2 -23 -32
1811 1 0 -4.834273014574099 -7.821028892692507 -5.028019648044994 -13 -51 -48
1721 1 0 -5.128398682050238 -7.474763446789795 -4.027233696931489 9 -13 -23
1284 1 0 -8.868913902453626 -6.016022165755791 -4.72970593179841 17 -34 -38
1843 1 0 -8.72387008117477 -7.142054945421076 -3.8779812578832695 12 8 -4
712 3 -1 -7.777118470707917 -7.317780378148884 -4.914024325946451 1 7 3
1790 1 0 -7.8795951796022665 -6.371718946393573 -3.8733232469300183 2 5 -4
709 1 0 -8.667147664684476 -5.617232535370824 -3.879299749270541 0 4 6
1796 1 0 -7.638427743777242 -5.548656329862097 -4.617774271252867 12 -1 -7
80 1 0 -6.99564470045765 -6.368418911033142 -5.088428846840056 1 3 1
1352 1 0 -6.347720898668366 -5.458747722951396 -3.2310418589381813 -2 7 4
1720 1 0 -6.91791959290784 -6.931724373045878 -4.325035958656911 0 7 1
1798 1 0 -7.332490734186822 -5.809224402016764 -3.210594378378658 15 -68 -59
646 1 0 -5.989806200777241 -6.537523249615547 -4.783825577451766 -2 4 2
1218 1 0 -5.315774682048803 -6.476990369385316 -3.7604341988263457 0 3 0
1286 1 0 -6.494366293508785 -5.4315936069197885 -4.511535556135841 -3 -1 -4
1794 1 0 -6.389383543513367 -6.41260686499163 -3.4999357748122297 -3 -33 -23
1865 1 0 -5.053485018255498 -6.56844009896504 -4.862426086843454 -18 -27 -40
1226 1 0 -4.1371255274077035 -6.833801758401198 -5.183783238861211 1 7 2
1221 1 0 -4.517436274640895 -5.798048313162361 -5.2733348416611 -59 -124 -52
1224 1 0 -4.366637573219041 -5.593571128856261 -4.136609226430659 18 -13 -20
1734 1 0 -4.285907339354658 -6.494215910774301 -3.3922998462597813 2 5 5
1732 1 0 -3.771694943266688 -7.1806809511093395 -4.21769728726975 14 -23 -29
2378 1 0 -3.3455945111694136 -6.156928343798861 -3.4051125159887157 -11 -11 -29
649 1 0 -8.654971070181576 -4.8992772186518065 -4.6576061965942275 -13 -21 -33
832 1 0 -7.482283491294817 -3.4888780795855046 -3.8749592151746435 1 9 5
1210 1 0 -9.42678300937617 -3.9026931422891584 -4.689270639680781 0 10 1
1340 1 0 -7.5955456213512065 -4.450455152090794 -4.57901378763353 -94 -57 -71
1848 1 0 -8.399884580483064 -4.088513501524741 -3.9263764584885115 13 -30 -25
1723 1 0 -9.360884618334097 -4.693770115034852 -3.8845697124120786 -7 5 -30
1282 1 0 -6.342166085733974 -4.292265961886003 -4.107811849945052 15 -2 -15
1988 1 0 -5.8226946893765374 -3.5278846647587043 -4.662450119973365 -110 -72 -21
1862 1 0 -7.360759240061686 -4.460315641407794 -3.595071574108364 6 -16 -25
1292 1 0 -5.793730349387262 -3.903505392074134 -3.374459904867655 -18 -35 -40
715 1 0 -4.082707498872768 -4.21461432799709 -4.858060206699451 -109 -54 -25
1351 1 0 -3.679004974537594 -5.1223285317976 -4.771934886113613 13 -24 -32
1803 2 1 -3.6410948894260953 -3.2003035837547125 -4.526191752043563 0 6 4
722 1 0 -5.025239119400962 -4.742551404616606 -4.7352605578188784 -6 10 -32
1291 1 0 -3.8640310753126776 -4.121534861962505 -3.8315633884368707 39 -66 -57
662 1 0 -3.259395763145744 -5.150338266076819 -3.7739001316163203 11 -1 -8
1225 1 0 -4.117302321317874 -4.906419039891264 -3.248258248137497 15 -2 -23
1864 1 0 -4.770418128244941 -3.595678223063294 -3.4446879907506065 -7 -47 -20
1933 1 0 -5.193520942740289 -4.787437426565184 -3.5892616294067436 6 4 -3
2292 1 0 -8.739162874182721 -8.50394279798542 -1.8972089325743777 46 -69 -59
1785 1 0 -8.417424821107833 -7.949443660770467 -3.141262547108856 -8 -2 -29
1718 1 0 -7.715395481977339 -8.104422486660194 -1.6784506963977832 18 -15 -25
2243 1 0 -8.693048811316979 -9.441478163729528 -1.3498687405182848 -47 -107 -21
2241 1 0 -7.941059610540994 -8.989995295995637 -2.418554625788683 5 4 -2
1780 1 0 -9.335902732005605 -8.179967699339251 -2.76393966605532 -17 -85 -57
1783 1 0 -8.883300563685436 -9.257624642037188 -2.6874396500155124 -111 -35 -63
2300 1 0 -6.36885136109211 -7.990891149973357 -2.3171420343586244 -7 -8 -26
1733 1 0 -5.5875440988837415 -8.451712023938063 -1.6872516807070759 0 8 2
2301 1 0 -6.860049135659668 -9.18943546283785 -2.2310313561581454 16 -24 -33
1157 1 0 -7.3305074733117745 -8.114468754395409 -2.65355237145888 26 -6 -14
3018 1 0 -6.433714435781229 -7.776833798525683 -1.3719530880203263 -12 -20 -46
1095 1 0 -5.705584779434859 -9.056024758227457 -2.62453487236467 4 -26 -30
2242 1 0 -5.638570268085452 -7.560160076118299 -2.9458237982267472 -7 -11 -24
2813 1 0 -4.459424222005834 -9.268869642681075 -2.1202763927742376 12 -25 -34
1804 1 0 -4.713621118379346 -7.974885765042019 -2.3621333379374816 -4 -24 -42
1731 2 1 -3.781229913677123 -7.798142529859039 -1.9252858449257977 0 7 3
2887 1 0 -3.86880780564953 -8.298076208496722 -1.0771247618592363 -18 -22 -37
2306 1 0 -3.87892197875886 -9.520616825387318 -1.235366485559582 23 -6 -22
2303 1 0 -5.007675824489192 -7.561900985601177 -1.534870157882208 -5 -20 -20
2826 1 0 -3.225140053081449 -9.112575272326577 -1.9830249208811626 -1 -12 -48
2311 1 0 -4.030105692782126 -8.624305698749959 -2.9629853142025993 -11 -17 -15
2359 1 0 -8.075194888433717 -7.0869947805386175 -1.8558976051524945 14 -20 -31
1909 1 0 -8.371245893412508 -5.917094593054152 -2.783684389789669 -91 -66 -54
2295 1 0 -8.523600688395957 -6.341991782874045 -1.1074241481237383 3 5 3
1217 1 0 -7.625174903117286 -6.119899993488639 -1.744249989104961 4 9 -1
1836 1 0 -9.405304982148525 -6.104959485115345 -2.707788410958685 11 5 -10
1856 1 0 -8.68780858419677 -5.372564449347565 -1.9019556655464507 12 -23 -38
2362 1 0 -9.205069151446915 -5.52139648007735 -1.0703091120233903 -120 -60 -30
2873 1 0 -9.143343358245481 -7.095318478511232 -1.826839448057073 18 -9 -24
1784 1 0 -7.75232658864936 -6.911868430370431 -2.99689059347149 6 3 -7
2237 1 0 -8.855080959758247 -7.038452618189063 -2.8411332990693294 -9 -12 -28
2365 1 0 -7.016409923905341 -7.0694311874719755 -2.0707835179349856 -13 -11 -34
1793 1 0 -5.931012422323866 -7.069962566256063 -2.111737021376083 3 10 2
1145 1 0 -6.618611792499853 -7.362529616912598 -3.111010898867967 -119 -49 -15
2355 1 0 -7.3855416463031975 -7.166239755766289 -1.0788196590089163 8 -18 -33
2299 1 0 -6.577585059457738 -6.126481228424781 -2.3727758732447177 -11 -11 -31
1808 1 0 -5.662789005287068 -6.18226085307283 -2.8548232881131983 11 -75 -62
2956 1 0 -6.613510482514915 -6.39114425671029 -1.194408487083877 -12 -15 -34
1800 1 0 -5.332600668214852 -6.255322278249127 -1.270571549884603 2 8 5
2364 1 0 -6.566887890921126 -5.324796752095975 -1.3259461371885954 18 -4 -14
1738 1 0 -4.909580495585385 -6.88797328089086 -2.2911268123142903 6 -18 -29
1739 1 0 -3.5927973188593962 -6.505632588870866 -2.3114915577960855 -10 -23 -29
1730 3 -1 -4.296934005681165 -6.891195527102876 -1.2963060573308622 5 -27 -24
2251 1 0 -3.2591437008599207 -7.3131126443714125 -2.8884963651139164 -20 -16 -36
2370 1 0 -4.666335289465928 -5.942996527810034 -2.0687366328463206 -74 -51 -39
2437 1 0 -3.7582469106361205 -6.060361272842949 -1.39372256230775 -122 -62 -13
1727 1 0 -4.805746755986742 -5.649718321559985 -3.1459306969106815 3 8 -1
1288 1 0 -7.795120012874921 -3.9374974600615116 -2.6757339201996997 0 5 3
1337 1 0 -8.91313665029563 -4.252897799176207 -2.849443308601315 0 1 0
2350 1 0 -9.445067786931729 -4.8465402784586225 -2.2665025973612143 8 0 -9
1293 1 0 -8.378647933815794 -3.2556869256624674 -3.1492935549196237 1 5 -5
1853 1 0 -8.65725827470285 -3.8296954053350185 -1.842077905718595 17 -8 -10
1344 3 -1 -7.838858272679948 -4.5593905416551195 -1.4903137953462258 10 -4 -14
1213 1 0 -8.134477723014973 -4.92118758402669 -3.039600397551077 16 -10 -24
2438 2 1 -5.960606439737104 -5.072185996560018 -2.360930377209173 1 11 -2
1935 3 -1 -5.751706172650521 -4.150845914986261 -2.4010406763508723 2 -3 -5
1924 1 0 -6.663798945498741 -4.266871969142133 -2.7808337643971637 12 -1 -14
1928 1 0 -6.797493112353254 -3.5293854833528084 -1.7907582208185944 21 -6 -16
2431 1 0 -5.9004957679116234 -4.2162955595903835 -1.4258751692850777 -16 -10 -26
1858 1 0 -5.500393617769251 -5.211208577035057 -1.1536865417274549 17 -6 -31
1801 1 0 -7.057888491239457 -5.1217027152101915 -2.3644646742910416 16 -29 -32
1991 1 0 -4.916540143553937 -3.621571982363061 -1.309193949676375 -11 -9 -38
1932 1 0 -4.711559309980088 -4.577823917851471 -1.4515692929563908 -121 -64 -31
1799 1 0 -3.8911332183133127 -3.681657972910574 -2.839654945713187 1 7 -1
2504 1 0 -4.817069080331351 -3.6936263554385538 -2.3706931350320333 0 3 1
1863 1 0 -4.9489448033536885 -4.638274148958645 -2.5743108532910886 -5 -14 -30
1867 1 0 -3.348616057781901 -4.171770894422374 -1.907912098922021 3 8 -1
2501 1 0 -3.766965959091187 -3.599612933167727 -1.1841599617396692 2 -76 -50
1298 1 0 -4.074609250297874 -5.125748068544565 -2.30385921064949 -39 -96 -28
2418 1 0 -8.637790330293912 -7.455492906246219 -0.9133178346532093 4 2 -5
2936 1 0 -7.7234788751063155 -8.213858015178609 -0.5181194334733782 0 3 -2
2356 1 0 -8.999646930953725 -8.587933942254574 -0.7541235249683709 17 -5 -14
2354 1 0 -8.922837838694548 -8.719269967304625 0.28699366519366415 -2 7 2
2888 1 0 -7.467820421586938 -8.853043418941377 0.3608624472181128 5 3 -8
2878 1 0 -9.363639937117098 -7.726335521163213 -0.15378957484812794 -22 -12 -32
2296 1 0 -7.97805659210289 -7.992604720046693 0.45147756858527227 0 4 5
2297 1 0 -7.675893941941965 -9.30930182908003 -0.44993417513846345 -97 -57 -50
2810 1 0 -5.335820233407758 -9.331973667564732 -0.17102842220214284 1 -15 -26
2881 1 0 -6.9511603428986195 -8.646093915232148 -1.0418404128997911 4 9 0
2872 1 0 -6.617815726101937 -8.221444416365195 -0.12509956848365333 -117 -37 -42
2955 1 0 -5.809768741089756 -8.282427510717676 -0.7132309591153912 12 -4 -11
2883 1 0 -6.274230572773494 -9.49264909809391 0.2610503297279836 -15 -79 -56
2954 1 0 -6.083484368436297 -7.797187319819491 0.6741666390141977 6 -13 -36
2820 1 0 -6.3206027068591135 -8.794634215407953 1.0357699595128138 18 -15 -12
3406 1 0 -3.4576275778530223 -9.043025887545767 0.6531354586970057 2 8 1
2366 1 0 -4.764312593354939 -8.847587361158364 -0.9033939905134095 5 -19 -24
2309 1 0 -4.333846408042716 -8.620563374631141 0.019855316119274973 -4 -9 -32
2254 1 0 -3.2371181283987336 -8.779175664390946 -0.3912312052380742 13 -5 -6
2884 1 0 -4.180642090980619 -7.585873955066167 -0.16515282708275458 5 5 -4
2886 1 0 -5.16171831598687 -8.81190517282453 0.8616826882087584 8 5 -11
3403 1 0 -5.154653956688082 -7.900615019703351 0.17815225738170606 -4 4 3
2312 1 0 -3.2973795873173564 -7.943491604446354 0.7999213962676399 -69 -28 -20
2432 1 0 -8.419697295109318 -5.438489999327749 -0.395990427291709 14 5 -16
3004 1 0 -8.579556617770395 -7.147560428468551 0.1993984784790781 -4 8 2
1724 1 0 -8.059925162543648 -6.330112303303835 0.6555243203892251 1 -23 -33
2423 1 0 -9.123682398807741 -5.580670718110173 0.6743863281314133 20 -54 -52
1788 1 0 -9.154709585319395 -6.227702687327857 -0.27528762308637994 1 1 2
2360 1 0 -7.7949932875106205 -6.4241802315707845 -0.42955318427349287 -5 -49 -45
2424 1 0 -7.4607699583308165 -5.464404588150908 0.5036384708729214 14 -11 -26
2371 1 0 -6.651425043611842 -6.10017685144763 0.1469707008500016 16 -5 -25
1795 1 0 -7.221909523743653 -7.187426456959581 -0.10068032946874425 16 -16 -28
2302 1 0 -5.917764588896078 -7.110052537892629 -0.8603796878025713 -12 -27 -46
1283 1 0 -5.748486040609301 -6.631368563151083 0.3620304608739637 1 7 -1
2890 1 0 -6.861453192509402 -6.729962487579921 0.7936340890267141 12 -4 -13
1719 1 0 -7.207110334550979 -5.3108574371329444 -0.5456495633893361 13 -12 -36
2951 3 -1 -5.106024385299385 -5.631302820768171 -0.21433863379018264 0 7 2
1726 2 1 -4.904175707193872 -6.968509478879997 -0.5375921697506956 8 -1 -3
1806 1 0 -4.0648899978567155 -6.3250964625990616 -0.4419569887455218 1 10 -5
2379 1 0 -3.838732748880624 -5.790843878241861 0.4426633058826492 12 -5 -8
2369 1 0 -4.592485364157208 -6.585543695214055 0.5379552683567799 7 -21 -35
1993 1 0 -4.50922765484107 -5.430588233753988 -1.054600082865798 11 0 -11
2377 1 0 -3.5397503377904114 -6.859593128748962 0.5185530318148198 22 -58 -43
2482 1 0 -8.647441080468543 -4.36031755095377 -0.9816857792628655 -76 -71 -21
2952 1 0 -8.343691595235384 -4.62571693989291 0.8299316025128932 -8 2 -37
2479 1 0 -8.875536696316908 -4.157339461551342 -0.011676206114343928 -15 -8 -25
1984 1 0 -7.519306908155243 -4.386967015299268 0.2524022674687035 -6 -7 -34
3007 1 0 -8.59117331691322 -3.4753581173237986 0.9215157754906702 1 6 3
3010 1 0 -9.28767499650048 -3.3307643010728016 -1.0027349188447632 1 4 4
2490 1 0 -7.901993524885268 -3.4347731884161217 -0.38300366313305517 -109 -88 -58
2426 1 0 -5.953362547371593 -5.213997779208539 0.03913058223354428 6 -18 -43
1861 1 0 -6.408614283709108 -4.431637540383772 -0.5764788727280938 -13 3 -30
1855 1 0 -5.40191826928961 -4.228600618936139 -0.46893395250908915 -19 -45 -29
2380 1 0 -6.665579174851109 -4.6951129837050445 0.6569698864162334 -1 8 1
3022 1 0 -5.994055305827725 -3.622145171811533 0.17960800462845475 -41 -83 -63
1929 1 0 -6.141759366421909 -3.264427449865493 -0.8746591484439813 -2 -99 -53
2953 1 0 -5.231510741134602 -4.531404288945087 0.4989411159486846 -120 -48 -34
2436 1 0 -4.947292714100693 -3.424909145145377 0.5567338098507199 11 -2 -32
2441 1 0 -4.365943833444423 -4.72826442565093 -0.1430251170199513 -116 -68 -70
2384 1 0 -4.063126927908199 -3.9088952165034208 0.9363663621467019 8 -27 -33
1934 1 0 -3.4372682293045353 -4.603210136823866 -0.895009602461566 -141 -71 -21
2508 1 0 -4.24845239489919 -3.517489763257004 -0.15273484305495116 -1 4 4
3461 1 0 -8.907421199953204 -8.042194538788777 2.552955068720096 16 -1 -25
2875 1 0 -9.453025856881306 -8.881053231857242 2.5346659357395693 0 3 -1
3455 1 0 -8.754142158056283 -9.475796203932296 3.017858107329225 -10 -14 -37
2811 1 0 -9.06296681655543 -9.265188390496293 1.330634941503939 17 -8 -24
3395 1 0 -7.443247930604736 -8.824561060056807 1.652873266783636 10 -1 -25
3005 1 0 -8.755970917230494 -8.082802938760185 1.152534968465557 1 10 1
4086 1 0 -7.977743623037659 -7.982319250855532 1.9982113088525288 2 6 2
2870 1 0 -7.971580162076898 -8.551664180365664 2.995934002403397 15 -2 -25
3448 1 0 -6.512303701816813 -9.353194811794614 1.9688221734305789 -16 -33 -39
3402 1 0 -5.58593061913764 -9.247342773235363 1.6019038326444648 -2 -13 -31
2958 1 0 -7.3202976788703245 -7.624179359337123 3.1626523365173593 4 4 -2
2822 1 0 -5.502408738687929 -8.167104829543861 1.6714551727727402 3 -10 -25
2880 1 0 -6.873586151518099 -8.441449515226509 2.5105120502734013 12 -7 -17
2879 1 0 -7.045320966875914 -7.613255274635514 1.692615927644627 1 5 3
2381 1 0 -4.310031993515618 -8.14218599997295 1.064121461691661 -21 -5 -34
3468 1 0 -3.4307221956728835 -8.939264333966953 1.68099376595801 15 1 -2
3399 1 0 -4.601785067442616 -8.820592899327114 1.7287914717445987 -58 -89 -53
2961 1 0 -3.972204627786445 -7.880886734386191 2.019200384204288 18 -41 -56
3973 1 0 -4.896112818447088 -9.309047313497802 2.7269337033069023 2 4 0
3984 1 0 -3.9587640043779646 -8.699006511261656 2.6910821232636453 12 -23 -33
3470 1 0 -4.822318659425838 -8.162584946790172 2.819871465983835 21 -4 -20
3002 1 0 -9.523305538221754 -5.6896943338005554 2.0863685930179035 -6 -2 -49
2938 1 0 -8.071250133718209 -7.207606433883767 1.2971644135702731 27 -82 -52
2361 1 0 -8.768077569204452 -6.296403292669905 1.499463284685876 -11 -15 -23
2877 1 0 -8.369571391186096 -5.420167709836802 1.855583569516364 -7 -5 -35
2948 1 0 -8.995605592323464 -6.334359676000793 2.6241389124804924 20 -61 -64
3060 1 0 -8.194917947794124 -6.990593101161449 2.5735538589736007 -2 -5 -30
3008 1 0 -7.886814601627477 -5.763239310589432 2.681656081885317 -18 -21 -25
2499 1 0 -6.697554381319463 -5.662942844211163 1.2859590010590822 13 -9 -13
4544 1 0 -6.303466468387615 -6.798309705902775 1.692478118361519 19 -6 -22
3014 1 0 -6.776563699752987 -5.453791142554522 2.3164597716222577 1 3 1
2372 1 0 -5.4647585366544495 -6.133728387212556 1.436996784926639 3 0 -38
2885 1 0 -7.215725088789709 -6.442356546041233 1.8692240731195011 -1 9 2
2891 1 0 -6.051129458748322 -6.282877112445128 2.570834957066045 -105 -35 -74
2957 1 0 -5.538962900522143 -7.275760593310415 2.27481340181264 4 6 -1
2367 1 0 -5.187771176570679 -7.1592412582454354 1.2366752558333711 9 -27 -38
3527 3 -1 -3.252381597655966 -6.07527199130045 1.2027403431793533 3 1 -4
2964 1 0 -3.8195128846577675 -6.9709594616370705 2.591248223858781 31 -72 -48
2950 1 0 -4.195680246284826 -5.607939882638082 1.7675259263959937 1 1 0
3525 1 0 -4.985914663004707 -6.212795880693634 2.4517795830279216 -114 -100 -23
3467 1 0 -4.176609750363688 -6.760181800477349 1.419302402991266 8 -1 -12
2968 1 0 -3.2035900824303134 -7.2566501285159 1.6369111320880558 16 -24 -22
3520 2 1 -3.503896053481606 -6.014225329268949 2.6711825169014314 10 -16 -35
2425 1 0 -7.748980422470515 -4.635443924490714 2.6369958112694825 11 3 -10
3074 1 0 -8.686651612247445 -3.5490334346517454 3.0315687307835644 14 2 -16
2428 1 0 -8.553168100604454 -4.20098032303619 1.7911589131104022 16 -7 -19
2949 1 0 -8.827972617900334 -5.055007024619183 2.7124661015711498 14 -8 -11
2368 1 0 -7.717864956536976 -4.761624678061071 1.4924752312879743 -4 -8 -29
1921 1 0 -7.584446149602476 -3.6982761399020836 1.7899674987122645 1 0 0
3080 1 0 -6.80010946277703 -3.465046837183207 2.428099348014057 10 -3 -23
2495 1 0 -5.6786753290286915 -4.373131763927689 1.7024435266727074 6 -19 -43
3070 2 1 -5.724639351490204 -3.701943816791571 2.6388833942323764 0 9 2
2433 1 0 -6.473506038754483 -3.522872598072928 1.1412352050125558 -9 -7 -29
1789 1 0 -6.802934989041632 -4.4036534061749375 2.1595204032685706 0 5 5
3457 1 0 -5.652347858771194 -5.264451709736582 2.2358333467924094 4 -3 -39
2943 1 0 -6.789552018359426 -4.77687554603929 3.1182572314206585 -3 4 -2
2500 1 0 -4.750504811363419 -4.67582764861573 2.6167446180710936 -4 -10 -38
3024 1 0 -4.4845891115841265 -3.6420674848776837 1.8990890790442427 -13 -23 -26
3032 1 0 -3.5742505110616363 -4.1173168138364 2.593464664340997 -2 11 -1