LAMMPS data file via write_data, version 28 Oct 2021, timestep = 1000

5192 atoms
8 atom types

-9.525278051358015 9.525278051358015 xlo xhi
-9.525278051358015 9.525278051358015 ylo yhi
-9.525278051358015 9.525278051358015 zlo zhi

Masses

1 1
2 1
3 1
4 1
5 1
6 1
7 1
8 1

PairIJ Coeffs # lj/cut/coul/long

1 1 1 1 2.5
1 2 1 1 2.5
1 3 1 1 2.5
1 4 1 1 2.5
1 5 1 1 2.5
1 6 1 1 2.5
1 7 1 1 2.5
1 8 1 1 2.5
2 2 1 1 2.5
2 3 1 1 2.5
2 4 1 1 2.5
2 5 1 1 2.5
2 6 1 1 2.5
2 7 1 1 2.5
2 8 1 1 2.5
3 3 1 1 2.5
3 4 1 1 2.5
3 5 1 1 2.5
3 6 1 1 2.5
3 7 1 1 2.5
3 8 1 1 2.5
4 4 0 0 2.5
4 5 0 0 2.5
4 6 1 1 2.5
4 7 1 1 2.5
4 8 1 1 2.5
5 5 0 0 2.5
5 6 1 1 2.5
5 7 1 1 2.5
5 8 1 1 2.5
6 6 1 1 2.5
6 7 1 1 2.5
6 8 1 1 2.5
7 7 1 1 2.5
7 8 1 1 2.5
8 8 1 1 2.5

Atoms # charge

1081 1 0 -7.482152474337769 -8.487986409058713 -8.024973168713865 -6 -20 -34
72 1 0 -7.9543796143983325 -7.914289412358436 -8.943411653615307 7 -59 -39
58 2 1 -8.9230777572606 -7.656202336870761 -8.734400494664657 0 7 2
1080 1 0 -9.171444428119303 -9.232119995441604 -8.582556487851907 -7 -25 -42
577 1 0 -8.504160797252228 -9.351019741917888 -9.516021527922575 -9 -12 -33
1144 1 0 -8.07727070408138 -9.080234736797532 -8.55722652435204 18 -14 -35
1140 1 0 -8.82208628066933 -8.339920672327827 -7.850512554822373 -7 -27 -33
637 1 0 -6.893643160333164 -8.697063397643856 -8.988255962083143 17 -7 -25
1083 1 0 -6.243261676451571 -8.267497115946673 -8.04765595188541 -41 -78 -34
4690 1 0 -5.7480721350025235 -9.228219653195904 -9.238996821770568 11 -30 -23
647 1 0 -6.914775234878268 -7.464117976366138 -8.294128720485318 5 1 -9
138 1 0 -6.251400520678098 -7.962708647900306 -9.24909315080613 -80 -76 -33
73 1 0 -5.241666017177947 -8.472116382994978 -8.456253751785722 0 1 1
9 1 0 -4.72830005592087 -7.725209977578699 -7.484422389216463 9 -4 -31
5149 1 0 -3.9312740722805515 -8.612387917266783 -8.007645608761601 -6 -6 -41
5084 1 0 -3.9172428028818738 -7.585334624994867 -8.095292111915857 16 1 -7
478 1 0 -4.851410051603836 -9.382604904782447 -8.673716068957962 12 -9 -10
5136 1 0 -3.641578982973889 -9.403658574391008 -8.731768821320918 -131 -34 -39
4750 1 0 -4.817113025855304 -7.689576113017698 -9.401492199571114 -16 -26 -21
4682 1 0 -8.318799011596353 -6.814961713315823 -9.294461194676066 -7 -17 -49
711 1 0 -8.531588927954319 -5.743211582877 -8.410663075059514 0 6 3
780 1 0 -7.789452851604021 -6.504884567194174 -8.407039207870602 8 -20 -39
148 1 0 -7.686361324101877 -5.305631937826556 -8.788034707747155 -103 -40 -50
120 1 0 -8.16132493918477 -7.386843972019904 -8.00216959901249 1 9 3
1155 1 0 -8.971929976230985 -6.831706103148424 -7.595719840171746 -3 -28 -40
74 1 0 -7.422341202856623 -6.072900506294277 -9.435904509548479 1 1 3
581 1 0 -5.913967816434417 -6.803546101677436 -8.62013019888748 -8 -21 -21
591 1 0 -7.193690007737244 -7.356570102847822 -9.506929588947878 -6 -20 -46
71 1 0 -6.9942862303694415 -5.864893018059324 -8.077927617943674 -16 -15 -46
139 1 0 -5.714922499235401 -5.753158459362511 -8.925023643925035 20 -14 -21
141 1 0 -5.583843690642802 -5.799820841816566 -7.661165456954499 3 -91 -63
21 1 0 -4.081900285299825 -6.8057592220942125 -7.523194976521084 0 9 2
4689 1 0 -3.9650305274762627 -7.239342513711461 -9.442844079859269 18 0 -24
4622 1 0 -4.68299051369567 -6.922160342039156 -8.514361764749903 7 -19 -24
610 1 0 -3.347503977420796 -6.521785049991647 -8.388184516321605 24 -17 -35
4694 1 0 -4.401846002152101 -5.399103746351028 -9.355475466698445 0 4 2
660 1 0 -4.448128102854377 -5.79626532602086 -8.052038067566384 -4 -18 -27
87 1 0 -3.321151173622123 -5.526779794509291 -7.552772654447307 5 5 -2
696 1 0 -8.145898846466205 -4.868108338321461 -8.001116921915722 3 0 0
137 1 0 -8.54968543951105 -4.394546146468107 -8.860311369787164 24 -2 -29
4792 1 0 -9.204808772511086 -4.153854744336541 -8.096814856717335 -11 -15 -49
198 1 0 -7.460149274587486 -3.8902016689244956 -9.001831744736489 10 -8 -31
3585 1 0 -8.5423057798506 -3.3179774813088803 -9.148751352363911 5 -11 -35
721 1 0 -8.136348773152534 -3.770719357672515 -7.871002011416123 10 -13 -45
64 1 0 -9.416303692591107 -4.8046859020755655 -9.479967879367068 0 9 2
769 1 0 -7.065500048316772 -4.638581739404872 -8.172346021981344 4 9 3
728 1 0 -5.9928984196485775 -4.920723805205418 -7.449505456045745 -126 -38 -31
209 1 0 -6.035133136187255 -3.3066103565334277 -7.936687410188906 4 -27 -20
77 1 0 -6.161004750838103 -4.712708174805684 -8.748449131098248 -19 -17 -31
4747 1 0 -5.402073768669839 -4.098552305233554 -7.913188983562529 15 -3 -13
136 1 0 -5.3782534759090845 -3.4168687683245764 -9.212266758669164 17 -8 -22
785 1 0 -7.046853734074056 -3.443428307158019 -8.227577719556384 -108 -16 -7
4163 1 0 -6.3758163387733315 -4.199421869389804 -9.524709511510911 7 -1 -12
4695 1 0 -4.06016312292691 -4.872699975810918 -8.292440067741454 0 3 0
4106 1 0 -5.065982326308172 -4.938345210527496 -8.549499038742232 -21 -75 -32
4175 2 1 -4.131344003779224 -3.9040030807603525 -9.107150796775251 9 -2 -11
143 1 0 -3.7492585970256576 -3.2897482080783313 -7.99103048368956 7 1 -11
69 1 0 -4.941814308314503 -4.453013799536048 -9.487943421089026 0 1 0
57 1 0 -8.173093420581166 -9.059341954350703 -7.401706871501065 9 -23 -43
1141 1 0 -8.584988192073324 -8.46126775984181 -6.7312859193871315 -10 -21 -16
644 1 0 -7.733334514348494 -8.051938687175799 -5.847576128905647 14 -8 -31
1216 1 0 -7.640506655952911 -9.051126541911009 -6.441802644836623 1 7 -1
1200 1 0 -9.262916039180503 -8.143443812831213 -5.93067201874296 -109 -56 -55
586 1 0 -7.608215412751623 -8.004724302153711 -6.938034443023234 -16 -16 -28
582 1 0 -8.38635632865384 -8.953952798766794 -5.692626414426912 -13 -21 -32
1843 1 0 -8.562059651343823 -7.432766739501995 -5.393161682946229 12 8 -4
588 1 0 -6.754353613548521 -8.898772580726085 -7.185210577980922 11 -14 -30
1146 1 0 -5.613322352574449 -8.828983807288681 -7.0875532440320015 -1 6 4
1662 1 0 -6.741149650514066 -9.210703477775578 -5.877531122973317 12 -8 -32
654 1 0 -5.803076656757559 -8.169821696856257 -5.739803266622002 21 -33 -60
1665 1 0 -5.445302672782795 -9.164322741335965 -5.995023473585887 18 -6 -10
589 3 -1 -6.791171875401508 -8.134126069574574 -6.177720570771536 0 6 5
652 1 0 -5.637062886444775 -7.561601776297905 -6.507475095042881 10 -8 -27
75 1 0 -4.539213320504696 -9.117484265035051 -7.1689599123992735 9 -22 -27
1100 1 0 -4.012472952543514 -9.045035610824469 -6.2134168752078 -130 -59 -14
1220 1 0 -4.932337215838861 -8.352527482920573 -6.506652930634463 1 10 0
1160 1 0 -4.701381816776652 -7.662171130207685 -5.48129760994336 -77 -63 -57
658 1 0 -3.8206250450498205 -8.329219046311124 -6.977983876940151 1 2 1
1742 1 0 -3.801654444938575 -8.041520797048667 -5.649498301266961 14 -77 -65
704 1 0 -8.0577327867418 -6.406154814627931 -7.310435883436588 14 -3 -17
641 1 0 -9.356991150292716 -6.012637554739231 -6.193289105928454 -118 -69 -32
1284 1 0 -8.85024609739541 -7.149660738695116 -6.629675990129927 17 -34 -38
767 1 0 -8.389919895680622 -5.7369843801540945 -6.449774148036632 -12 -14 -38
714 2 1 -7.631846603531647 -7.068763666106319 -6.512780744407006 14 -11 -7
712 3 -1 -8.292810465932813 -6.542692822590978 -5.861275385067747 1 7 3
12 1 0 -5.388939463880554 -6.847409747381064 -7.374899521185929 -13 -7 -23
706 1 0 -6.1067818254032185 -5.5923007961912194 -6.632572694021538 1 8 2
707 1 0 -6.518947589591097 -7.3670997966011145 -6.815410266975173 1 8 0
133 1 0 -6.87924922627739 -6.579052000605493 -7.3116846397358755 11 -24 -23
80 1 0 -7.270853144656462 -5.751676287898904 -5.468056651094287 1 3 1
142 1 0 -7.402175033788285 -6.0939577739138455 -6.467615188896238 -20 -10 -31
777 1 0 -7.385263497839441 -5.339302384720378 -7.288997982750626 -5 -55 -45
653 1 0 -6.881410414093495 -7.18936996775077 -5.8710160311557 1 6 2
1277 1 0 -6.136894565914196 -6.326217299680758 -5.605138342172816 4 12 1
1811 1 0 -5.645615988449922 -7.135551946254742 -5.5313781906734665 -13 -51 -48
1165 1 0 -5.261309325110233 -6.422092001032924 -6.175741811504147 14 -6 -29
719 1 0 -4.956883458683921 -5.310780038331772 -6.293505816463983 18 -5 -14
1865 1 0 -3.644772694849212 -6.192377515681725 -5.381839004430637 -18 -27 -40
720 1 0 -4.752289861231253 -5.990416715156036 -7.012378968631166 -12 -16 -37
1226 1 0 -4.487554016006451 -7.203510475530975 -6.670234807876719 1 7 2
1161 1 0 -3.780794800168302 -5.5570908300807975 -6.555160356397296 -1 -9 -29
538 1 0 -3.248070199971478 -7.133738574950163 -6.197496325427874 7 -2 -3
1148 1 0 -9.293865906548367 -4.961187152076781 -6.195617264323905 15 -31 -20
117 1 0 -8.821114936198974 -5.193804396108674 -7.184893457708063 9 -80 -78
783 1 0 -7.460672153805743 -3.983390557672047 -6.968828229222063 -1 -5 -23
1333 1 0 -7.713257917445742 -4.080038937262448 -5.908208786245689 10 -16 -42
705 1 0 -7.995468034094313 -4.838700574304924 -6.6099820118587385 9 9 1
191 1 0 -9.150232840491995 -3.7223767103733896 -6.118716617676314 9 -3 -35
713 1 0 -8.760615231317999 -3.9501810926268606 -6.896688638381081 14 -7 -12
78 1 0 -5.7232717530265065 -4.570342729010504 -6.368342535337861 -4 -9 -39
643 1 0 -6.440646667079027 -3.7501659747423246 -7.10862858748528 0 4 2
4210 1 0 -6.874081663727464 -4.899257646605863 -6.430716034434311 8 -22 -33
1346 1 0 -6.391378951657375 -3.707705944490626 -5.935062214713975 12 -19 -32
131 1 0 -6.598612703816256 -4.6254985145606815 -5.5306994173284085 5 12 1
716 1 0 -5.495873951791221 -3.419637082634853 -6.595146055550642 1 6 -3
146 1 0 -5.574017753968085 -4.065926152948731 -5.30040861789519 16 -10 -26
4751 1 0 -4.851408814707421 -4.918255614091329 -7.348530772150835 -3 6 -7
203 1 0 -4.047724916641559 -4.492041869729355 -6.304095322760114 -14 -20 -17
1351 1 0 -4.1880011139476645 -4.867893579261165 -5.368216790562728 13 -24 -32
4744 1 0 -3.722861554692535 -4.082020877947906 -7.358421669364547 -92 -73 -34
4762 1 0 -4.65742297087295 -3.9232486073167543 -6.978557916046165 15 -30 -30
1802 1 0 -4.325701118667488 -3.4402285704857976 -5.938509267906881 -1 -11 -23
156 1 0 -3.289144584334737 -3.6317901510618102 -6.47573285179213 20 -6 -29
1715 1 0 -8.812779166914916 -9.45483839269764 -4.790585803420635 16 -6 -21
1778 1 0 -9.14068501243072 -8.555812268026408 -3.5599654340271036 0 10 2
2235 1 0 -9.077256000551154 -8.46803995368641 -4.972433512598352 5 -20 -36
1785 1 0 -8.07586548612107 -8.175298661998875 -4.715473322699312 -8 -2 -29
1780 1 0 -7.8183101678463105 -9.267063009492222 -3.4774342726897802 -17 -85 -57
1208 3 -1 -7.477378095319351 -8.990072627553939 -5.037501107718761 19 -14 -13
1790 1 0 -8.72753770931164 -7.443214304160477 -4.298344259877921 2 5 -4
2359 1 0 -8.01086523741118 -8.209258700725501 -3.6728523495241885 14 -20 -31
1729 1 0 -7.073711989201368 -9.412224782107252 -4.198678368279683 20 -31 -35
640 1 0 -5.8934484633480215 -9.22563360669631 -4.980052736245729 1 -22 -38
1211 2 1 -7.030188617816899 -8.063407946403672 -5.096321310169026 0 8 1
1151 1 0 -5.679806621723818 -9.365430090846544 -4.022528362802416 0 7 0
1222 3 -1 -6.138536165035044 -7.581368423345003 -4.577515104966327 10 -7 -30
1158 1 0 -6.485690318121635 -8.530294040732322 -4.216768358927945 13 -12 -37
656 2 1 -5.41168905363445 -7.787750908602059 -3.717304983647256 8 -5 -10
1145 1 0 -7.127571931454215 -7.753742259008712 -3.8957882373242123 -119 -49 -15
1783 1 0 -7.154973963418856 -8.617309787929315 -3.1952218229768765 -111 -35 -63
1805 2 1 -5.231156172872886 -8.244900816345199 -4.638895217101863 15 -2 -14
1154 1 0 -4.618113892380316 -8.883848081185567 -5.158728320843488 2 4 4
1659 1 0 -3.4352085373969827 -8.834865691600022 -4.909906549173057 -2 -23 -32
2253 1 0 -3.7062933050129705 -9.414738488807131 -4.05530755392375 15 2 -16
2252 1 0 -3.2439396866209242 -7.902439765181488 -4.571878639768432 9 3 -3
1152 1 0 -4.710565767201735 -9.289026186044918 -3.9991283437337346 1 6 1
1171 1 0 -4.263200271139785 -8.251168819057034 -4.485936636488059 9 -25 -32
1732 1 0 -4.637673549132923 -8.332836490327002 -3.3476277278034634 14 -23 -29
2256 1 0 -3.551211005580945 -8.591633979763257 -3.6080505625626165 5 7 -5
1271 1 0 -9.21150161283607 -6.7569655035252225 -5.129185423434592 10 -26 -22
1287 1 0 -8.543152247999288 -5.605391919021243 -5.243508469830825 1 0 1
709 1 0 -9.489631460540782 -5.864314770374474 -4.294990033559525 0 4 6
1275 1 0 -8.340771434769113 -6.481965952971935 -4.646721164166759 2 7 3
1798 1 0 -8.07677885134576 -5.531496278401281 -4.230542246541518 15 -68 -59
1720 1 0 -7.799592031802752 -6.647167097830664 -3.359911544644501 0 7 1
1213 1 0 -8.727290264715178 -6.304510761404112 -3.4661456733450344 16 -10 -24
646 1 0 -7.601878590242311 -7.1624556414540415 -4.703268774257577 -2 4 2
717 1 0 -6.383466481428718 -5.530682128401945 -5.004649645004696 -13 -18 -44
1728 1 0 -5.351275608768893 -6.652289384036319 -4.154954141182305 15 -1 -14
1286 1 0 -7.2417510869272705 -6.206635822579602 -4.14723901591388 -3 -1 -4
1721 1 0 -6.655420274550501 -6.762216652863417 -4.826514390171302 9 -13 -23
1727 1 0 -6.329085573446087 -5.918930553253024 -3.6534719559512054 3 8 -1
2242 1 0 -6.36712697715353 -7.101052997323605 -3.75035455807141 -7 -11 -24
1304 1 0 -3.440893387825445 -6.398099889057598 -4.421734798521525 6 -26 -32
662 1 0 -3.9879261058992315 -5.4122599318018 -4.520384867207293 11 -1 -8
1810 1 0 -3.199079010014958 -5.748054080859672 -3.1768240233993885 -11 -8 -30
1224 1 0 -5.202737879308923 -6.167428475284622 -5.172738346597743 18 -13 -20
1167 1 0 -4.550996687355312 -6.976904087199404 -4.751605648915929 5 -18 -32
1291 1 0 -5.231394380074934 -5.554598588636221 -3.956995171787217 39 -66 -57
2378 1 0 -4.323351533377564 -5.623723429950041 -3.234477569482773 -11 -11 -29
2375 1 0 -4.2334531546081 -6.6020938042264845 -3.7237053198716255 2 -5 -33
1860 1 0 -7.911101041452524 -3.2768983617724032 -4.890210379341872 11 -5 -13
1862 1 0 -7.9287662802309145 -4.290540732462582 -3.909731382891128 6 -16 -25
1791 1 0 -9.137426971332669 -3.873388313534878 -3.322747488921345 -59 -78 -33
642 1 0 -8.676115079748953 -3.859325962443694 -5.087198742192607 16 -10 -26
1796 1 0 -8.898362877430264 -4.992416386494827 -4.153575419994564 12 -1 -7
1340 1 0 -7.5573060011294215 -4.769914562140008 -5.197523958291457 -94 -57 -71
1786 1 0 -9.456531026661184 -4.919850928324434 -5.074607276782755 0 7 6
722 1 0 -5.7929031364735115 -3.483884677863515 -4.507811990091043 -6 10 -32
1221 1 0 -5.3125030793446895 -5.022916832103849 -5.226869960494805 -59 -124 -52
144 1 0 -5.853981265133569 -4.645390766962567 -4.366300285588019 -13 -23 -39
1352 1 0 -6.355946284869846 -4.792487409700742 -3.361105912351432 -2 7 4
1285 2 1 -7.054830527070798 -5.043309889556302 -4.193308030357293 14 -11 -17
1935 3 -1 -7.273457134223257 -5.125785540723009 -3.1818788035000005 2 -3 -5
1988 1 0 -6.713812368237995 -3.932321922906029 -4.017263383489788 -110 -72 -21
1282 1 0 -6.925658614859592 -3.5922224021237112 -4.97163220250565 15 -2 -15
1225 1 0 -3.4684800128801623 -4.559785315059969 -3.395112959270758 15 -2 -23
2389 1 0 -3.8813315693157615 -3.3590074974754716 -3.915031963978005 8 -20 -30
661 1 0 -4.388764668490208 -4.41358462285712 -4.16680047976903 4 -53 -64
723 1 0 -4.709519790280723 -3.5585141203306048 -4.734197220884135 -13 -10 -19
1289 1 0 -3.8471950825577568 -3.9862396486858085 -5.142136051659342 5 4 -8
2363 1 0 -7.755032769481559 -8.903736653564357 -2.3677451343222295 -20 -40 -40
2292 1 0 -9.255419480390056 -8.95046137883865 -1.5888278639367628 46 -69 -59
1784 1 0 -7.804586324758622 -7.47953179037044 -2.5261234657497798 6 3 -7
2873 1 0 -8.76983915996306 -8.234789315030895 -2.4001119644050313 18 -9 -24
2237 1 0 -8.818949217046143 -7.525297776082059 -3.1742433012583744 -9 -12 -28
2247 1 0 -7.926277691805203 -7.930677548707592 -1.226986277394405 -5 -17 -44
2297 1 0 -8.319983031408212 -9.024624320993045 -1.0760491596160249 -97 -57 -50
1781 1 0 -8.66180121893726 -9.115006522764244 -2.7629125287286396 1 8 6
1157 1 0 -7.182218796720475 -8.10246353745825 -1.9870504515637337 26 -6 -14
2301 1 0 -6.426566334571471 -9.040476367453923 -2.0610325714100335 16 -24 -33
2881 1 0 -6.237812514791281 -7.5715460340197485 -1.4685438455672193 4 9 0
2307 1 0 -5.829778089363616 -8.48358170202337 -1.1806643954035938 24 -9 -28
1095 1 0 -5.408797146186723 -8.71008399848517 -2.1565468339665075 4 -26 -30
2300 1 0 -6.041220687547713 -8.406957186042991 -3.1727086444629315 -7 -8 -26
1725 1 0 -4.999882591989291 -7.6631054613837675 -2.53253888700379 12 -11 -31
1804 1 0 -4.503636388481475 -9.169384443714488 -1.4855144226345351 -4 -24 -42
2302 1 0 -4.8633768933625845 -8.005448491553565 -1.4689316904711551 -12 -27 -46
1722 1 0 -3.873039112029283 -7.627900586220162 -3.0916218033132727 0 -11 -27
2180 1 0 -4.976024398812943 -9.398388858364275 -2.9245324755657767 18 -9 -23
2251 1 0 -4.022576900753406 -7.420731582338557 -2.0292637426320352 -20 -16 -36
2832 1 0 -3.505513015203145 -8.736960723043042 -1.556931851669804 -96 -53 -27
2366 1 0 -4.1719579645109794 -8.452312142124804 -2.2808660374209824 5 -19 -24
2813 1 0 -3.5652448006203894 -9.148314269196337 -2.7827439420334477 12 -25 -34
2295 1 0 -8.67776726025526 -6.995758729136621 -2.029427621147735 3 5 3
1793 1 0 -7.650210905123216 -6.717974285607976 -1.78240616510919 3 10 2
1217 1 0 -8.243677327366703 -6.148757410012588 -1.185346894477423 4 9 -1
1856 1 0 -9.346238236660117 -6.201049166009527 -2.3485913655815 12 -23 -38
1909 1 0 -8.00701171204204 -6.023448419722703 -2.411639604731401 -91 -66 -54
2484 1 0 -9.295895579471653 -6.528432105845133 -1.2339907409073978 6 5 -5
1733 1 0 -6.636925196591484 -7.3358281688522835 -2.7755849630649054 0 8 2
3018 1 0 -6.126079678285489 -6.300870419773492 -1.2226835707659134 -12 -20 -46
1794 1 0 -7.1151068755927325 -5.908554093130296 -1.6911194377114305 -3 -33 -23
1808 1 0 -5.932679808689151 -5.884400582181655 -2.434711089000056 11 -75 -62
1738 1 0 -5.780642710920672 -6.9045567590612125 -2.3249573148390485 6 -18 -29
1218 1 0 -6.954514536962005 -6.140995226630148 -2.8646839339137773 0 3 0
2956 1 0 -5.178442125979017 -6.028553689939097 -1.6775003927632617 -12 -15 -34
1800 1 0 -3.6218710383268404 -6.669220080112941 -2.67297221817786 2 8 5
1739 1 0 -4.779666494279476 -5.29185117422225 -2.340026088277949 -10 -23 -29
1863 1 0 -3.5927253988766106 -5.456559165003027 -1.9665856099064525 -5 -14 -30
1734 1 0 -5.06782224189939 -6.524353769643797 -3.1394642140753555 2 5 5
2299 1 0 -8.04088744070222 -5.11118329706427 -1.6955925879019225 -11 -11 -31
2432 1 0 -9.28967559296733 -5.21972930665197 -2.003334722169309 14 5 -16
1337 1 0 -8.920528230037325 -5.25408490619126 -3.0982439801217367 0 1 0
2482 1 0 -8.560086615924954 -4.065948387339114 -1.6089064816905982 -76 -71 -21
1924 1 0 -7.475949310819197 -3.952952892368349 -2.017652928482997 12 -1 -14
1787 1 0 -9.460424107249088 -3.7098152414763343 -1.5017617758214155 16 -28 -37
1853 1 0 -8.245849990573907 -3.3413994919752183 -2.910583048574146 17 -8 -10
1801 1 0 -8.027134397734002 -4.617020452396747 -2.7274748034804084 16 -29 -32
1848 1 0 -9.138005782192938 -4.2624612430646955 -2.4767254592988954 13 -30 -25
2364 1 0 -7.133876568511836 -4.090618635734267 -2.942575679462609 18 -4 -14
2438 2 1 -7.113005894146389 -4.963461184572793 -2.177611342162366 1 11 -2
2431 1 0 -5.668939880010346 -4.475177109734527 -1.4605525156584995 -16 -10 -26
2371 1 0 -6.572446342629627 -4.784993384474721 -1.1239224005722743 16 -5 -25
1928 1 0 -5.79222093321886 -3.237692598471259 -1.8464237035102924 21 -6 -16
1855 1 0 -6.420954218378292 -3.807767242471754 -1.3354528934876697 -19 -45 -29
2435 1 0 -6.31084715843338 -4.146375471103662 -2.290073299553703 8 -26 -31
1933 1 0 -5.449104632624063 -4.6491169216251835 -2.9273017912455113 6 4 -3
1292 1 0 -4.918313909949631 -3.9751849689200203 -2.119877558026616 -18 -35 -40
1858 1 0 -4.390596968089657 -4.832705547043534 -1.5557168754267416 17 -6 -31
1932 1 0 -4.194405790155611 -3.4838453985273765 -1.6192980774785577 -121 -64 -31
1799 1 0 -3.554450755372754 -4.3804936228253135 -2.1881541502681516 1 7 -1
1864 1 0 -4.358597815424995 -4.478845117573469 -2.9855665135949274 -7 -47 -20
1939 1 0 -4.4889082668869635 -3.4542450508767675 -3.082220327918275 8 3 -3
2365 1 0 -9.27666109454087 -7.965770068728986 -0.6205208584165072 -13 -11 -34
1718 1 0 -7.78254545546542 -8.772788639625974 -0.19383538167548992 18 -15 -25
2354 1 0 -8.715729319342849 -8.732422992928468 0.01672114517575033 -2 7 2
2888 1 0 -7.459010428049248 -8.518108585276003 0.732757614688262 5 3 -8
2872 1 0 -7.464386487013468 -7.426781047020124 -0.37102047753028716 -117 -37 -42
2871 1 0 -9.353091653105045 -9.160879367268167 0.8052168501173016 -7 -14 -34
2243 1 0 -9.206506620217723 -7.643430375377936 0.6272614710735616 -47 -107 -21
2757 1 0 -7.898771943429502 -9.489216724611913 0.6507494499229064 0 6 -3
2825 1 0 -6.621374940034438 -9.328838910407427 -1.0063228398051443 -2 -18 -37
2767 1 0 -5.8780987612269 -9.201874937844249 -0.30491007481394555 17 -3 -30
2883 1 0 -6.750360465446201 -8.049587216449822 -0.757956123299167 -15 -79 -56
2955 1 0 -5.69178833212173 -7.643495346943345 -0.2427253083605307 12 -4 -11
2954 1 0 -5.355002363245359 -8.755320669021165 0.859232860863199 6 -13 -36
3402 1 0 -6.572033847523435 -9.275896259008055 1.0561509344541515 -2 -13 -31
1795 1 0 -6.40491802141817 -8.517336516697984 0.22095702466757972 16 -16 -28
2499 1 0 -5.573960609649304 -7.646564625690691 1.0000764357995913 13 -9 -13
2890 1 0 -7.018345997717494 -7.477908820926463 0.8105860054858377 12 -4 -13
2309 1 0 -3.7648889791888185 -7.822311433014781 -0.9090126391976323 -4 -9 -32
2254 1 0 -3.940620876542707 -8.940026958523472 -0.5379237429930703 13 -5 -6
2306 1 0 -4.982205679153423 -8.635706108543282 -0.6563473572383572 23 -6 -22
3399 1 0 -4.592664951168688 -9.26501034808257 0.3270043950029827 -58 -89 -53
2381 1 0 -4.741686269443559 -8.114210296938786 0.16984065099451207 -21 -5 -34
2897 2 1 -3.4621181559082506 -8.91397936705454 0.47917413006678655 3 7 -2
2884 1 0 -3.5506185685972533 -7.8189740566503785 0.670111105943783 5 5 -4
2478 1 0 -8.568232261813575 -5.6383682517553275 0.8674397265720136 -3 8 -1
2418 1 0 -8.241747711465987 -7.298996762504269 0.3737053951756068 4 2 -5
2355 1 0 -8.607794029220939 -7.299847443034825 -0.868537859159184 8 -18 -33
2423 1 0 -8.718409792224026 -6.27313853987897 -0.35692291157117084 20 -54 -52
2878 1 0 -9.059217568904574 -6.641772653304665 0.6602387807700464 -22 -12 -32
2424 1 0 -7.528467802817858 -5.574492124841439 -0.6462246078270995 14 -11 -26
2867 1 0 -9.391863969740635 -7.040969970031084 -0.1482010166775959 -9 -6 -34
1724 1 0 -7.229017207071847 -6.496029186071412 -0.7699687024936541 1 -23 -33
2481 1 0 -7.36809754616124 -5.317953401988866 0.8725360262871726 8 2 -9
2360 1 0 -7.124943478849952 -6.216972989770038 0.17133197681032317 -5 -49 -45
1283 1 0 -5.652770990642259 -6.505599179688951 0.030787096016507736 1 7 -1
2433 1 0 -6.181250508308418 -5.87754315993322 0.6816209084696979 -9 -7 -29
1730 3 -1 -3.861291442928633 -6.80540625710792 -0.9420231735929884 5 -27 -24
2303 1 0 -4.643085204948521 -7.135046499166047 -0.294824134809292 -5 -20 -20
2369 1 0 -4.350160171925179 -7.086046349094038 0.6794746165663318 7 -21 -35
3027 1 0 -4.9499270739855366 -5.827066221082287 -0.06026179979664756 -1 10 3
2372 1 0 -3.908435016468266 -5.562690974498093 0.763464011084341 3 0 -38
3014 1 0 -5.210295150972534 -5.666964511528861 1.0266001626700187 1 3 1
2490 1 0 -8.354014675688049 -3.695379427323477 -0.7126206909269658 -109 -88 -58
2358 1 0 -8.521458163276735 -5.278374688714676 -0.2516637672520887 14 -5 -18
2428 1 0 -8.743444632880488 -4.184256348926354 0.05587073465122098 16 -7 -19
1719 1 0 -7.4144504097601445 -4.644944717217893 0.06637578906655495 13 -12 -36
1861 1 0 -7.64471694652725 -4.529304985098023 -0.8792716025187228 -13 3 -30
2362 1 0 -9.331116517937147 -4.422477847430419 -0.6881384231838238 -120 -60 -30
3007 1 0 -7.867082911212289 -3.8697431596754557 0.8129819465473457 1 6 3
2951 3 -1 -5.768659176262933 -5.259730011439499 -0.6092928937192352 0 7 2
2479 1 0 -7.3857361611280465 -3.5861373557976886 -0.2223236781154396 -15 -8 -25
2952 1 0 -6.634950318216082 -4.263603188420857 0.913144100446452 -8 2 -37
2426 1 0 -6.619861561812844 -5.233688952121021 -0.15286447272694484 6 -18 -43
2953 1 0 -6.491553831972917 -4.0352445668877905 -0.20025224511722098 -120 -48 -34
2380 1 0 -5.700732185950558 -3.6284347954381064 0.6850198231779122 -1 8 1
2885 1 0 -5.609190919671525 -4.9143831877254165 0.4073491431514528 -1 9 2
2379 1 0 -4.829309017954007 -4.715535743975627 1.0439452238306968 12 -5 -8
1726 2 1 -4.7797754702825355 -4.926945995618704 -0.5504265800206688 8 -1 -3
1934 1 0 -4.1966205384028585 -3.28195421375291 -0.5118370473861019 -141 -71 -21
2441 1 0 -5.063319694912337 -3.5911885766567693 -0.9507789950313621 -116 -68 -70
3023 1 0 -4.746091758743413 -4.072673304213449 0.05824778755043595 6 -13 -34
1993 1 0 -3.680737220866411 -4.192665744275307 -0.42901472820837877 11 0 -11
2394 1 0 -3.7863921044390514 -4.490468766177701 0.9293883898881952 -16 -16 -30
2502 1 0 -3.200388494214827 -3.239160506597218 -0.05535466989145964 1 8 2
1807 1 0 -3.747298008878362 -5.170495947420313 -0.8250534006774184 1 2 0
3320 1 0 -9.079884055439157 -9.404701853181713 1.787029482933083 6 6 -5
3389 1 0 -8.840142823587406 -8.228498041591013 1.4105497999379837 24 -8 -29
3004 1 0 -7.693666435781245 -7.884313389476225 1.5004494295822293 -4 8 2
2870 1 0 -8.07925244640546 -9.166844584453196 2.7137834817796396 15 -2 -25
3393 1 0 -8.078055104849883 -8.924964597325122 1.6219746117793512 -102 -46 -41
2811 1 0 -9.072974948638905 -8.726879035680884 2.784511658231603 17 -8 -24
3509 1 0 -8.249214151910818 -8.257360708953174 2.42212097824779 -2 -13 -38
3452 1 0 -6.231828652626245 -9.334067680832543 2.0794351801276605 -6 -17 -42
2880 1 0 -7.082605330946844 -8.68361860471881 2.0651047616975795 12 -7 -17
2296 1 0 -6.289476716072616 -8.296805969467147 1.4030291139203528 0 4 5
4086 1 0 -6.210053733808751 -7.746045424555167 2.8758984976727358 2 6 2
2879 1 0 -5.578878028031285 -8.13937785359638 2.2092410690703903 1 5 3
3456 1 0 -6.152125994388785 -8.733698619784523 3.007636055432459 24 -2 -21
3395 1 0 -7.1379481539924985 -7.634582350015482 2.437192900821974 10 -1 -25
2886 1 0 -4.80162727445017 -8.878900871515674 1.9388263253706313 8 5 -11
3403 1 0 -4.541293123589028 -8.041862839808246 1.2223454960684947 -4 4 3
3977 1 0 -4.869151563952373 -8.368210292061617 3.112748944635848 18 -12 -28
3973 1 0 -3.426090567065348 -9.418780744741337 2.353652384809378 2 4 0
2822 1 0 -4.42972858299903 -7.639130127659987 2.2216428808815727 3 -10 -25
2367 1 0 -3.9299134346611453 -8.78292697186579 1.4394952262572944 9 -27 -38
3533 1 0 -3.487892887294229 -7.869227682232097 1.7591288578608943 0 5 -4
2961 1 0 -3.502821813767755 -8.001482668317552 2.884260857203714 18 -41 -56
3005 1 0 -8.781435082381014 -7.407557220591361 2.0172204458164673 1 10 1
4150 1 0 -9.242104895801246 -5.91867513900452 3.019054005803303 -9 -36 -44
2938 1 0 -8.147676439460025 -6.950622567936982 1.2746752555523606 27 -82 -52
2361 1 0 -8.739525878794403 -6.289045556096926 1.7872124399578364 -11 -15 -23
3466 1 0 -7.823747024916311 -6.790639941878078 2.846232041414169 13 -1 -25
2877 1 0 -7.815728022234282 -5.89921413756874 1.9910979657615162 -7 -5 -35
2948 1 0 -7.9172805610773915 -5.791376947905741 2.9930283986427804 20 -61 -64
1789 1 0 -7.198645163007884 -6.358732920626331 1.1948942004007193 0 5 5
2425 1 0 -6.447536927544227 -6.636080095859711 2.7230957391007293 11 3 -10
2368 1 0 -6.209427688428651 -7.217254337812949 1.9025374274177882 -4 -8 -29
3457 1 0 -6.0311663235230055 -6.186189260184114 1.6974446895417057 4 -3 -39
3467 1 0 -5.408050566754536 -7.021184186379085 2.6663700284465732 8 -1 -12
3070 2 1 -6.797558959035017 -5.5808529727998835 1.8180240326915336 0 9 2
2943 1 0 -5.587763933968417 -5.995042414694632 2.6600887752493465 -3 4 -2
4544 1 0 -5.098399076404759 -6.864792285824536 1.7170036387415428 19 -6 -22
3453 1 0 -4.430419633703949 -5.7003571949953615 3.051954805326044 14 2 -14
2957 1 0 -3.705097095536088 -6.817146152332876 1.9962296982580439 4 6 -1
3525 1 0 -4.185026626897683 -5.871503130654343 1.7781322754420288 -114 -100 -23
2891 1 0 -3.4448696598438526 -6.3031452017209055 2.9190058961422536 -105 -35 -74
3002 1 0 -9.446789330065636 -4.940866332570644 1.7023785340271005 -6 -2 -49
3074 1 0 -9.149239678660145 -4.306577608735623 3.0501039398182663 14 2 -16
3187 1 0 -8.535308612578936 -3.610672511583868 2.0381404323541377 9 -31 -24
2949 1 0 -8.233259113020805 -4.698417183032834 1.377797365685673 14 -8 -11
3069 1 0 -7.9989497940901675 -4.46809672412028 2.845730801001088 0 11 2
3706 1 0 -8.600628549896202 -5.199921454557333 2.3418277129241574 -110 -29 -33
2500 1 0 -5.703242248238434 -4.057169112542375 1.7523844285736179 -4 -10 -38
2498 1 0 -7.405657445288028 -3.5824424504616625 2.6398094320036027 13 -37 -47
1921 1 0 -7.0962454245574875 -4.49975533675659 1.9360735154837487 1 0 0
3707 1 0 -6.94917061690372 -5.159684865612939 2.8812604110852242 2 9 2
3020 1 0 -6.034481227542317 -4.854355416374911 2.4981641922145665 -15 -23 -30
3024 1 0 -4.394657480334512 -4.612266471594128 1.9752866174735266 -13 -23 -26
3025 1 0 -4.95106275036199 -3.5474151761580104 2.4094388712864157 -14 -29 -36
3032 1 0 -3.5277002135629156 -5.1772945660910725 2.53275325125553 -2 11 -1
3085 1 0 -3.814489904678427 -3.2561432694593146 2.4703413284017888 12 -6 -37
2962 1 0 -3.2693502337014695 -4.053133871259559 1.894596064868085 16 4 -13
2950 1 0 -4.448856980364549 -3.7492738969147292 1.4350411268057517 1 1 0
3026 1 0 -4.2555512272475555 -4.186159103298621 3.145973739933116 4 -2 -7
3596 1 0 -5.209141892299152 -5.275073533481909 2.0225402891394535 4 -35 -19
3608 1 0 -5.053797948673773 -4.670655719669812 2.88710474491681 -13 -23 -50
4024 1 0 -8.261499666521145 -9.079263953436739 3.839268817254681 -56 -72 -33
3511 1 0 -8.27572704965532 -7.957032409218709 3.7732730723594545 -12 -14 -30
3960 1 0 -9.07119961233961 -9.201598441000076 4.964086706639806 12 -3 -26
3455 1 0 -9.263399165401355 -9.31874234458137 3.728500328080913 -10 -14 -37
4680 1 0 -8.893261270385587 -7.537104591107224 4.740417319037055 0 0 0
4610 1 0 -7.801097792441159 -8.204757721966747 4.886503054416365 2 -23 -16