LAMMPS data file via write_data, version 27 Oct 2021, timestep = 22967

5201 atoms
8 atom types

-9.53555675648651 9.53555675648651 xlo xhi
-9.53555675648651 9.53555675648651 ylo yhi
-9.53555675648651 9.53555675648651 zlo zhi

Masses

1 1
2 1
3 1
4 1
5 1
6 1
7 1
8 1

PairIJ Coeffs # lj/cut/coul/long

1 1 1 1 2.5
1 2 1 1 2.5
1 3 1 1 2.5
1 4 1 1 2.5
1 5 1 1 2.5
1 6 1 1 2.5
1 7 1 1 2.5
1 8 1 1 2.5
2 2 1 1 2.5
2 3 1 1 2.5
2 4 1 1 2.5
2 5 1 1 2.5
2 6 1 1 2.5
2 7 1 1 2.5
2 8 1 1 2.5
3 3 1 1 2.5
3 4 1 1 2.5
3 5 1 1 2.5
3 6 1 1 2.5
3 7 1 1 2.5
3 8 1 1 2.5
4 4 0 0 2.5
4 5 0 0 2.5
4 6 1 1 2.5
4 7 1 1 2.5
4 8 1 1 2.5
5 5 0 0 2.5
5 6 1 1 2.5
5 7 1 1 2.5
5 8 1 1 2.5
6 6 1 1 2.5
6 7 1 1 2.5
6 8 1 1 2.5
7 7 1 1 2.5
7 8 1 1 2.5
8 8 1 1 2.5

Atoms # charge

1815 1 0 -7.791504310328911 -8.29152706332548 -6.732158901400087 -5 -5 -2
157 1 0 -4.864383215326227 -0.9715619433989922 -1.211689217125123 0 -6 8
1173 1 0 -1.9662210911166254 -1.8409252320281446 -9.39951096830822 -13 -5 4
2994 1 0 -9.46523554285824 -2.4853288265499005 -3.914455512692414 2 1 1
1412 1 0 -8.35214158896641 -7.303227884789668 -8.715614045401761 -3 -3 2
1282 1 0 -9.515326969145107 -8.86975033872632 -0.9461347023256188 11 0 4
4822 1 0 -8.205500921413801 -3.4340287529609466 -5.11804732377377 4 6 -5
3148 1 0 -4.681016307582361 -5.067999127559576 -8.485070795981928 -2 -8 3
3635 1 0 -7.106804559987624 -1.433594091659618 -0.21840110149070746 0 9 0
2836 1 0 -4.8484157196431035 -9.450767439071187 -4.795379378194361 3 6 0
3335 1 0 -0.22360969132955688 -0.8258774419897286 -8.665758616533122 -1 2 -2
2383 1 0 -5.403104516556691 -8.91359405883507 -6.986712990156297 4 -4 -2
4670 1 0 -3.161393738004759 -7.804321367891964 -7.90319851752661 6 -4 5
1139 1 0 -3.949516409010422 -8.451263999790982 -7.6197015790120535 3 -1 1
402 1 0 -4.944450341870197 -7.886494554440908 -7.616142572858518 -1 -2 5
1291 1 0 -5.000446035980033 -0.1392583988361551 -0.06970149493685973 -7 -1 -5
1189 1 0 -8.810137899151844 -0.9885020595535376 -7.072546620923985 -10 6 -6
2767 1 0 -2.983111636665572 -9.114266682791634 -8.772243647028757 -4 9 4
2794 1 0 -3.3850713307267464 -9.403474235777187 -4.289276916003365 9 0 -1
1310 1 0 -5.919239490116109 -0.2247049100454923 -7.196387218490656 3 7 1
3445 1 0 -4.1956020122560265 -9.183168836733554 -1.0861802434207846 -4 3 -5
1115 1 0 -3.2649476342504693 -8.939211082597595 -5.608297403440375 -2 0 -1
4064 1 0 -0.13708463390016057 -0.5563395222762519 -6.844338137182643 -3 -4 8
3911 1 0 -9.499408218050817 -0.7653544645259416 -2.0535339502814107 1 -2 0
4526 1 0 -0.4068096827375154 -5.069730305675786 -4.72121841530946 1 0 -3
856 1 0 -9.216219907301534 -4.685246079887371 -5.999223617281567 -8 2 1
2555 1 0 -9.427516360488594 -4.610481357607585 -8.991383168234558 -2 -2 3
1322 1 0 -8.244138186319875 -6.397735677983077 -8.150100465551214 2 3 3
276 1 0 -6.817349677207961 -8.485013703579328 -8.803480774161875 -2 -1 7
3012 1 0 -6.801772221894673 -6.243654753366783 -6.625928304049631 11 2 7
1340 1 0 -6.8959061345404145 -8.457936476187767 -7.4475881333948735 -1 -4 1
795 1 0 -6.6821749205152905 -7.649746346069056 -5.5732287335666815 2 -2 0
1020 1 0 -7.819462454753138 -6.998671317959037 -7.261748020059223 -3 -2 1
1761 1 0 -8.760804384251053 -7.632094723596229 -6.688539813256698 1 2 -7
4079 1 0 -0.06267270758568522 -6.633897445787461 -0.061530867995591265 7 -2 3
2126 1 0 -6.284332007518318 -7.373376186593005 -8.347014384695889 -5 -4 -11
4574 1 0 -7.5067736273299275 -3.6578043496463515 -6.094475221996694 6 0 4
4491 1 0 -5.838726333037788 -7.803672345418218 -6.951423636421135 -3 -3 6
5201 1 0 -9.316922224817974 -4.725840245552255 -1.9918532369419069 0 1 0
1570 1 0 -3.9545134856546644 -7.191556773433021 -6.956073232417197 7 -1 6
3241 1 0 -0.9712704139195107 -0.19839929314802163 -8.477907404383487 -11 8 6
3574 1 0 -2.8014308854105447 -8.06719601829062 -8.87776207735857 -3 1 4
5172 3 -1 -1.949739590362678 -8.201091039141346 -9.49767779325775 -5 4 2
2651 1 0 -3.5777039817434666 -4.866700665882501 -8.395552120710366 6 4 8
1690 1 0 -2.533542014269096 -7.3512923714787375 -7.300896274441303 -5 1 1
3787 1 0 -8.620839288234304 -0.6886357970160137 -2.5894622989391536 4 3 2
3589 1 0 -0.8100406445067456 -7.084723408247869 -8.424809005785052 -2 2 -4
2316 1 0 -0.8185129237492905 -8.226212794293017 -8.25574868086991 3 1 -4
197 1 0 -7.7869264677388115 -0.056018781435813736 -2.6316066153504583 0 -7 -1
115 1 0 -0.02169175578164584 -8.044528122857749 -4.232761189044889 3 -2 -4
2999 1 0 -6.866007213005613 -6.2307710372072975 -7.916547937902744 -3 4 -1
1662 1 0 -8.04062202553923 -5.131091760476366 -8.147266751454742 -9 -1 -1
2891 1 0 -7.697397969877423 -7.835036187104023 -7.743882363231406 -2 -1 -1
2822 1 0 -7.821212652493276 -4.779251573457933 -9.136723309628103 6 5 5
674 1 0 -2.6376420525276894 -8.620393424734784 -7.8728420994882145 -2 5 2
3605 1 0 -5.4317588651666835 -0.962619615321092 -9.239304371627874 -7 0 -3
5052 2 1 -5.369450077064639 -6.91662246640797 -7.977152118231759 7 0 2
1818 1 0 -5.328844093980751 -5.9858149592017345 -9.043689004001836 -3 -3 0
458 1 0 -6.776347918294475 -7.317441830699188 -7.287637588383845 -3 3 4
4701 1 0 -2.0838298610097032 -0.5094101107540769 -8.531518376207988 7 2 -3
3483 1 0 -3.8400032138424276 -6.0737857714899235 -9.135279927188622 4 7 -4
2746 1 0 -2.266801528524561 -4.582380027795711 -9.211053113774515 0 -6 -3
2873 1 0 -4.07188053197109 -4.162944829476389 -9.00498686848491 1 -1 4
3439 1 0 -7.337535740998149 -9.42599359224728 -6.471404766511609 0 3 -7
5136 3 -1 -9.376737096538841 -8.224838601853813 -5.711885897771369 2 1 0
4072 1 0 -5.588291262092579 -0.3757156975884737 -0.9227791253221902 2 0 -1
4883 1 0 -3.545703410450524 -4.067681725044657 -6.647535465827321 4 -3 5
4922 1 0 -2.3244701509999848 -3.4194741147490113 -7.541368926505254 -5 -1 1
2372 1 0 -0.9135944539550866 -4.131640648052724 -8.747903279094805 -13 -3 -1
2236 1 0 -5.295574274584982 -7.892314946827804 -0.1675788060167971 -4 -1 5
2346 1 0 -1.4568154015169732 -3.219041727303928 -7.011990386672544 2 -3 4
3553 1 0 -0.9783931113879891 -6.239892531458333 -8.997496044750664 2 -3 7
3555 1 0 -5.133974988528334 -2.8298500017875554 -0.03790013693461347 5 5 -2
127 1 0 -9.089526361788955 -0.2830466159060787 -4.203860338848651 2 0 -1
3995 1 0 -0.9244601633152065 -1.5027308422051089 -9.134555736251828 -4 -3 -3
3834 1 0 -4.826356310095362 -2.449846847156252 -9.457267688165242 -6 4 1
1498 1 0 -7.763246346656841 -4.106660805359649 -7.933899800904232 9 -2 -2
2644 1 0 -7.226697264824892 -2.998927684778738 -7.858604586722924 0 1 -9
737 1 0 -8.595291308029667 -3.465585542449423 -7.922019680817122 -3 -15 -2
2827 1 0 -0.6603129274170403 -6.331707924760387 -4.969872452545759 -3 -2 -3
5165 3 -1 -0.009162224619533532 -8.274261456946356 -5.334353837396786 0 0 -6
4652 1 0 -6.461018085457386 -1.8606209649228411 -7.764347780289541 5 3 -1
11 1 0 -6.650588948323078 -2.8193606392793678 -8.660094602422289 0 -6 1
3167 1 0 -6.402475532840068 -3.239050203581539 -7.015739039612248 -2 -5 -5
2525 1 0 -7.925689427671598 -8.405770269562113 -8.807055482383044 -4 3 -4
1230 1 0 -5.341773003747635 -3.4236218618536753 -7.301526784132594 1 4 8
3160 1 0 -5.3235597632092215 -4.9667121204079 -9.25547493656017 10 1 -4
2865 1 0 -5.763441623799805 -3.7302304834802182 -8.170748720545497 2 2 -12
1455 1 0 -4.366182953698942 -4.555242693702054 -7.5027738286072445 -1 8 0
1510 1 0 -9.3197735238197 -6.971002657556166 -0.3214443884000229 6 -1 7
4674 1 0 -2.5929320606115933 -1.6671529684582334 -7.155733156033963 7 1 9
2575 1 0 -3.7568879527993264 -2.4569130949941993 -6.845571612678616 0 10 -3
1556 1 0 -3.05791316025425 -2.8086176179448454 -8.218402220991189 6 5 2
4797 1 0 -2.9013521624840397 -8.770824355077828 -3.618822919710638 -1 2 5
3434 1 0 -5.255721860395685 -3.8643515642545276 -9.223126733969309 4 0 7
4113 1 0 -3.906076801332614 -3.0882064916764387 -9.035903815886295 8 -1 1
1962 1 0 -1.8223745164951284 -4.225184765014271 -8.255925371414783 -4 3 1
4393 1 0 -2.6499631869753655 -5.082526789548825 -5.5418534243290525 -3 -8 0
3443 1 0 -1.2007834587522748 -2.900047741651461 -5.161460128338587 -1 -4 7
1070 1 0 -0.6346601372936966 -2.6794101294290735 -8.895670841220104 1 -5 -1
2996 1 0 -0.942972725739418 -8.11383266071375 -5.87300550900359 -1 3 -8
3670 1 0 -4.686730776643686 -0.2744866746287986 -6.875792578465209 -3 2 -1
2942 1 0 -0.2038243246211735 -3.4935293190585286 -9.46179384502203 2 -1 0
3090 1 0 -1.7905565998308282 -3.6530518005581305 -9.280050595659874 -4 2 -7
4720 1 0 -3.9310851849101907 -0.1189988567998288 -4.813007848444066 -1 -10 -4
4038 1 0 -0.815800010787946 -8.11117911822128 -9.319057016512986 -5 0 -7
1734 1 0 -1.6750104137992032 -0.5186941271786907 -5.069094342306037 -7 2 5
4655 1 0 -6.7729563233247445 -0.9159185174861051 -7.866688641668517 7 0 -6
467 1 0 -7.437336464700424 -1.7437321152533363 -8.477058613952002 4 -1 -5
3708 1 0 -9.00497217263862 -3.368670854258079 -1.6647424840133889 1 -9 -2
123 1 0 -5.90002098359582 -1.8680080689993153 -9.090277007029748 -2 1 5
735 1 0 -5.769176141678156 -1.1365602672739588 -8.173853979937522 -2 -4 5
3516 1 0 -7.617302909449939 -2.657555258146318 -5.4016613415176895 9 -2 9
3186 1 0 -2.7274810738638706 -1.1201591036356593 -9.503535736594511 2 -1 -5
930 1 0 -4.603376380711866 -1.221771055993841 -7.291602068615807 -4 -1 -2
2705 1 0 -6.550966014010328 -3.482720301568036 -0.9244378078855924 0 5 -1
3004 1 0 -4.446524334362937 -0.7238943458556335 -8.975041202329013 1 1 -2
2295 1 0 -4.577801309804099 -2.630595907305249 -8.369278182207792 -3 -7 4
389 1 0 -2.576564286372336 -6.848851978560598 -8.395680524861621 0 -2 0
3768 1 0 -3.8177766190494378 -1.4628826736795002 -8.953794483041468 3 0 2
2844 1 0 -3.4964317709228308 -0.6972302625314697 -8.322391478988326 4 1 -6
998 1 0 -1.257074031320725 -1.2092673259934816 -4.312538313101464 -9 -1 -1
1645 1 0 -4.428337371058228 -2.850690845497196 -0.8337832979789574 -5 -1 -3
3318 1 0 -3.7647792422571857 -1.8906178620125633 -7.995505349318253 5 -4 1
1513 1 0 -1.996853002762565 -2.3478057998831936 -7.53669909448397 -3 -10 5
1649 1 0 -0.5093523699853488 -0.5959491545057709 -4.797195113949749 -4 0 3
4051 1 0 -0.782240716979139 -0.7845339507880489 -3.271071085476631 5 9 -3
3656 1 0 -4.231443953650681 -7.099006848442231 -8.299658151045394 -5 -1 -4
1678 1 0 -8.798342583002572 -8.871618636642866 -8.050947858193565 3 2 11
1082 1 0 -8.75475646793714 -8.717551843817388 -6.799909621030672 2 5 -1
1601 1 0 -6.869494149722341 -9.253189589873694 -2.653435818544474 1 -6 -1
2261 1 0 -0.3901058411318594 -1.7406045006891402 -4.467728778059258 -1 7 5
1920 1 0 -0.8853272453257119 -0.812930669765894 -1.5520454432354924 -2 -6 -5
5118 3 -1 -7.395260169978216 -7.328657825512078 -6.1814304841791365 1 1 6
4522 1 0 -7.359551570011745 -8.39200137228032 -5.803304726387992 0 3 -1
3218 1 0 -6.397780952900407 -8.507120024834744 -5.948943762983911 7 -10 2
1637 1 0 -8.046777482644586 -9.352707825674562 -4.186214198907222 4 6 2
785 1 0 -5.102121764139502 -7.672636954805357 -8.586575872796109 -7 -3 -5
3413 1 0 -5.08126105791383 -8.107973140265237 -5.181367088716947 3 3 7
4796 1 0 -4.099366269657357 -8.37288667693334 -5.811716603003006 -6 -4 -5
4898 1 0 -4.585128046296638 -7.658879806377222 -4.430644533326478 7 5 3
4609 1 0 -5.496617775905114 -8.621030782506612 -4.10214483557239 6 1 4
1155 1 0 -6.937880984984672 -5.213359387990629 -0.02805968338447329 -2 -4 1
1206 1 0 -3.3486031274803567 -8.598296003047846 -6.8226515974851205 0 -5 -1
3342 1 0 -9.083829191974113 -1.582122203297617 -9.2523998482921 -5 -4 3
4476 1 0 -1.2891382985645912 -8.856503378073219 -6.519547064055185 -2 -6 3
3178 1 0 -0.339727030004056 -5.178181256921267 -0.2754631505210323 9 0 -1
5022 2 1 -3.394829362729431 -8.175319690158377 -4.254805938558083 -2 5 7
1975 1 0 -1.5605411086527043 -7.37930991693416 -5.421908898616375 0 6 -1
3418 1 0 -3.980652943289307 -8.672637039760367 -4.801713378757474 -1 0 2
4187 1 0 -2.9472480495120514 -7.992565911856043 -5.66632042875347 -1 1 4
2342 1 0 -8.959678317286235 -2.103627090419784 -1.3651667593923893 1 -1 -3
2229 1 0 -1.2254765722324166 -7.963947167599637 -7.215883763101413 -4 15 4
1822 1 0 -2.049317678351273 -8.644186617529062 -5.46993868548326 2 7 -2
1379 1 0 -0.5940958252088979 -2.642515573149139 -0.4624378157895048 1 6 -3
1469 1 0 -4.6683133384116555 -9.011469215256339 -7.934510312901395 -2 2 -4
710 1 0 -5.794223208234756 -9.505098963477792 -2.475257483342239 -2 -6 -1
943 1 0 -9.484863514433476 -1.4510383962012394 -3.1759500656073163 -1 -5 -5
2763 1 0 -2.0000102874184433 -3.2853444218539005 -0.4892060288646469 -1 4 3
2147 1 0 -8.376609600497856 -6.358057434604602 -6.571528973754477 0 3 0
2026 1 0 -8.399218597410295 -7.167126035069424 -5.850438035019128 6 1 1
3233 1 0 -8.956057457395527 -7.788338001039321 -7.765965776157574 3 4 5
4592 1 0 -7.518107047908979 -3.83141911401178 -8.937898758442795 6 -12 15
426 1 0 -7.6728437004085235 -5.786098272723024 -7.448316632029025 -2 -3 -1
2458 1 0 -5.0856988294251 -7.059947095396174 -6.494061977714939 2 -8 7
3695 1 0 -7.101376315098596 -6.156448856181104 -4.634155516414642 -2 1 3
371 1 0 -6.30767213516736 -7.025648223247554 -6.351100333859852 -1 4 -6
4848 1 0 -5.632737948519939 -7.023550554657709 -5.557723353329387 -4 0 -1
949 1 0 -4.563954131428496 -8.051964059899081 -6.585350243312057 6 7 2
4109 1 0 -5.142792435865072 -8.854818718453021 -5.91932303259259 8 -1 6
3951 1 0 -4.592137800808156 -7.268562461026541 -5.426165370530181 3 8 -3
3571 1 0 -3.517142866458485 -7.237481547866675 -5.210948709145385 0 -8 9
1533 1 0 -1.6474420965632142 -8.853754962133594 -7.839280560015867 3 -6 3
3249 1 0 -3.0336142076340966 -6.606123818791312 -6.958778940340298 1 2 8
2697 1 0 -1.8335495007373188 -7.747151304863956 -8.20841001633653 0 3 2
3936 1 0 -0.36404629831572777 -5.9427672234946165 -3.7208815378448605 0 4 -2
4265 1 0 -2.4524984214356094 -6.004163775274904 -7.631353736546056 -3 4 -3
2686 1 0 -3.6002534875732852 -5.676180418418314 -5.515839626155318 -6 3 2
2531 1 0 -2.05981783494666 -6.7907603267472645 -6.549781542599984 -15 6 -9
2837 1 0 -4.989999839947073 -8.5735965684746 -9.456645539651756 -3 2 2
74 1 0 -6.537142324216234 -9.163351289616482 -8.10492659557238 0 -1 6
2243 1 0 -7.765342395796146 -9.103089135363277 -3.1200646772093554 8 1 5
2361 1 0 -0.2712638948809971 -6.50877761984956 -6.864439733980046 4 4 -5
1094 1 0 -0.17398444740416963 -2.5679742144316506 -3.216711975309283 6 -2 -1
2834 1 0 -6.975586710312008 -6.885771538359458 -0.990245156426111 -6 4 -6
1600 1 0 -6.843295332894391 -5.242592098876858 -7.419402517294598 -3 6 0
4783 1 0 -8.326099861299687 -5.513412458858133 -5.826632905679282 2 0 -1
31 1 0 -8.035150069263898 -4.863594243634555 -6.932977587873237 -7 6 2
412 1 0 -6.785216699033556 -4.227975506275651 -8.26897016969794 1 -1 -1
3185 1 0 -1.1322910505483552 -3.736621588592775 -0.7584044600859201 0 0 -1
2832 1 0 -6.03469848648079 -6.0043980936766905 -7.333800274929436 -3 4 -9
1819 1 0 -5.877481081071561 -4.78178229916715 -7.7682074899563975 2 5 -8
999 1 0 -7.279599711977012 -5.145972140861228 -5.4430153005452535 1 5 -3
4835 1 0 -5.011019341369962 -5.857716347027003 -6.697068374106047 5 0 8
231 1 0 -5.352437759018775 -6.038047461549999 -5.350374652708274 -1 0 -1
4480 1 0 -2.76612922989953 -3.8329136866627547 -8.644789050404107 0 -2 3
4595 1 0 -3.439378247858115 -5.521536978304037 -7.520704203234531 1 -7 -4
607 1 0 -4.991623372918405 -4.6585003254915085 -6.742274678231526 4 -5 7
1421 1 0 -4.377313946925964 -3.2380347337419515 -6.313575243562106 5 -6 -4
2660 1 0 -3.457878630630514 -6.4160096032841745 -8.050994933624029 3 0 3
153 1 0 -5.037194898367123 -4.139092342146904 -5.876126579587506 -3 1 6
3468 1 0 -2.710319916297289 -5.70718827336518 -8.661026326047674 -7 0 -4
3688 1 0 -1.6818786206775584 -5.319929603657511 -8.152444181821132 3 -3 0
1951 1 0 -2.8914384227350194 -4.525389360536419 -7.693212763786999 6 2 2
139 1 0 -1.6291701434211348 -4.556345978322944 -7.323616561000662 -6 -3 -2
4116 1 0 -4.469246518579592 -3.641885920915116 -8.05271518822132 1 -3 -1
2992 1 0 -3.8984921171264535 -5.441748667095298 -6.589292255866345 -3 -5 -1
2471 1 0 -0.6831677065470014 -7.571743284540912 -0.3145948527707567 -1 2 -2
4659 1 0 -2.0329188772471145 -3.7213449932596934 -5.080660599452074 3 -2 -4
4734 1 0 -7.423736830433274 -6.184307167770883 -8.965975785555973 4 -2 9
2922 1 0 -2.6685790459383307 -1.5484123204836129 -8.542648952377665 0 -2 2
393 1 0 -6.6571139645924156 -4.254877611688542 -5.724490264162117 -4 1 2
3194 1 0 -6.199916455367991 -5.3994673215623035 -5.593270074122487 -5 1 10
1838 1 0 -6.6038505790115085 -2.684103549226635 -6.012010020210235 -7 -9 -2
4354 1 0 -8.880897007241591 -2.4124282334824887 -7.045495344194934 -2 8 5
3266 1 0 -7.959945059395636 -2.3510710078107637 -6.385033596658489 4 3 4
2029 1 0 -6.235191757515568 -4.607168831710533 -6.810161232284919 -1 0 -4
363 1 0 -8.015279548317858 -3.3113932745320316 -6.9083664635079955 -2 7 -5
4160 1 0 -5.705364222372244 -2.2703590865991083 -6.954353354890632 -4 -1 -3
394 1 0 -6.633651463414157 -1.263217711519804 -6.859751590334124 -3 7 0
939 1 0 -5.365987521836202 -2.830367573417984 -5.5459178735503025 -3 5 8
3496 1 0 -4.717835811291692 -2.49273610593443 -7.271948700366874 0 -3 2
3850 1 0 -3.5903794662254978 -1.103283207331243 -7.130900546715636 2 0 -4
1847 1 0 -2.464896605144479 -2.5576981245570094 -5.474855280929686 -8 -2 -2
1059 1 0 -4.073931163946633 -1.8932237548365016 -4.687163051121587 -4 3 -1
384 1 0 -2.6610716829124526 -1.6822466253314898 -4.664921349392216 6 -1 5
2564 1 0 -4.80366900073376 -1.626711080416218 -8.309598804753488 -2 2 -1
606 1 0 -3.275829843221012 -3.463785851717846 -7.455712689615899 -3 -5 10
2054 1 0 -0.13551004755250773 -9.145285203643873 -8.518031798907408 3 5 6
2598 1 0 -2.483266167310064 -3.903408856333895 -6.649413428539297 5 9 -3
700 1 0 -2.8859082879854787 -2.9605352993161134 -6.62390746290642 -1 4 3
3892 1 0 -1.9419294952491581 -3.1986930657082553 -5.979172156180866 -2 1 1
1582 1 0 -8.441523863525829 -1.3773594443226784 -7.999440011329218 5 4 -1
604 1 0 -8.199246853587523 -0.802580605966293 -6.24130701495082 5 -4 2
1917 1 0 -8.899742702833528 -1.6661570101250236 -6.1762921761246465 0 -1 0
2221 1 0 -7.919147432430735 -0.49353390426571764 -4.412704866762595 -3 -9 4
1731 1 0 -7.273880174049536 -0.4313299911623485 -6.5007589461656465 7 2 -5
3250 1 0 -7.786389157067278 -1.559231522590915 -7.302132115124655 2 -12 5
4206 1 0 -7.025933070934395 -2.2866605052088262 -7.027144804974795 -1 3 -3
2090 1 0 -6.0985565078954345 -9.121866198389617 -9.169420433127954 2 4 2
118 1 0 -7.768933401783082 -0.5667757790943657 -7.472265925385569 12 -10 7
2665 1 0 -0.6151524343375172 -1.6336427555214472 -8.154187552610074 6 -7 3
3161 1 0 -9.085787953380757 -8.964571570968163 -2.784212660555645 -5 2 -1
1698 1 0 -0.9702730986103969 -4.740766295997007 -3.832967373024081 -3 9 4
5163 3 -1 -6.9589524985302855 -0.09356896273660631 -4.8868228684449635 -1 -3 0
4663 1 0 -5.4001561929181445 -0.9993883742457204 -6.614098903123349 4 -1 3
2003 1 0 -5.105290324872611 -9.203784817932291 -0.3361307113352545 0 1 -6
2620 1 0 -3.8206567701522314 -0.4592470302722145 -5.9183004346120835 -12 4 6
3777 1 0 -3.8415495152672996 -8.27057361531539 -8.627412927866034 -1 8 3
3240 1 0 -2.9193514417791837 -0.6860651987739406 -6.47142754621332 1 2 0
62 1 0 -5.884174853146369 -4.273003523749428 -0.7718495093150786 2 4 3
3713 1 0 -1.3580683430124338 -2.4359107300752756 -6.156088529728494 -1 -3 1
2133 1 0 -1.6831331976745112 -1.4371775620685874 -7.9857245783872575 -4 -2 2
5046 2 1 -5.094778274692409 -0.13741660012061452 -4.923642774809631 1 -1 5
1102 1 0 -1.9751089355615408 -0.7263291963199077 -6.838027381166709 0 1 3
493 1 0 -0.7570313962580979 -2.5006490648703625 -7.496592467096989 -7 -11 2
3025 1 0 -0.650410012804528 -7.469467616516898 -3.393320290612394 0 -1 0
4008 1 0 -1.620519570905274 -8.798942473433893 -0.8528077878680005 10 2 0
4791 1 0 -7.3443748776427995 -8.442609903732109 -3.85700523365069 7 -3 -4
4828 1 0 -8.415684734537848 -8.42357780017135 -3.7236473094463287 -4 8 -3
2991 1 0 -8.185456213496053 -9.011846859676908 -5.923629767036919 11 9 0
5104 3 -1 -7.59756646309785 -0.543972367499924 -0.7299978975627681 1 -4 5
748 1 0 -9.054701436015137 -6.274270880566384 -8.914367810356062 4 -5 0
587 1 0 -5.892511112062866 -9.117800043121568 -5.1732699748740405 -6 -4 -4
4603 1 0 -1.6238267656191807 -4.383934305376556 -0.1357957521722728 3 -2 1
3795 1 0 -9.117216936418274 -4.5816926032767915 -7.760322287651773 -2 3 1
1923 1 0 -6.517272529978534 -6.892592430507406 -4.649392071451985 -3 3 11
2488 1 0 -0.6985869125815132 -1.0497887208278271 -6.01240698677974 0 0 0
926 1 0 -9.515674349024092 -5.725568239151199 -7.986899109784874 10 -8 -5
3271 1 0 -4.481392181813471 -9.318360980439977 -3.8245271073473894 3 5 9
4238 1 0 -6.3872476208593785 -0.43443223174140755 -9.446959811082408 1 -4 6
3332 1 0 -3.959666222759166 -1.3958016102314357 -1.5287247317817894 -1 1 -8
4156 1 0 -0.10417941296190492 -9.09594968264866 -3.9534559683836434 4 1 2
4627 1 0 -8.411581095138617 -1.1748789505814017 -1.6865107893731057 -2 3 3
438 1 0 -0.7963564328708017 -8.56826759755027 -4.755057182557202 5 -6 2
4470 1 0 -1.6559120780116041 -6.411656594172273 -4.698956433805694 -4 0 -5
253 1 0 -2.069529142780648 -7.821022056968515 -4.109203723211902 0 10 8
935 1 0 -1.8775186067886338 -8.764902574811165 -3.1823803914529636 5 1 -7
1588 1 0 -9.001408832428096 -9.22702079822868 -9.457336506172993 -1 3 -2
1396 1 0 -0.18882001955289596 -7.518047662787833 -6.958171977592848 1 0 0
2011 1 0 -0.478516490604294 -7.410426625939154 -5.307710454820512 0 1 0
1913 1 0 -7.555825326271751 -7.6171166285696135 -4.858582073571835 -4 7 -5
2041 1 0 -9.157642357891142 -6.667539541580604 -5.482035199491263 4 4 1
2800 1 0 -8.177980944986864 -7.394057750317554 -3.3992602995777945 5 1 5
2961 1 0 -6.248338605865815 -6.444030943538245 -3.3754233736439057 -2 -1 12
2046 1 0 -7.8024658553987285 -6.624880459236748 -3.993759771731055 11 3 -9
4279 1 0 -7.708667441180449 -6.610287652909483 -5.34212821934717 -1 1 1
1592 1 0 -4.167086301401416 -6.530754097546405 -4.828102705421799 1 -2 2
1284 1 0 -4.110531925178597 -7.043689603208284 -3.5377117164180714 2 -8 -5
4625 1 0 -3.3052202998530475 -7.111106458407829 -4.2671889865207495 -5 7 1
4287 1 0 -4.9932562888225 -5.845561770072335 -3.8933464057146896 5 -4 2
3330 1 0 -4.5572316017915036 -5.9023043642615045 -2.904539372608461 2 -2 -3
267 1 0 -3.9506471544590163 -6.151575051358669 -3.8062617127574407 -6 -3 1
3409 1 0 -2.7158392889393745 -6.072634893952669 -4.711951008391026 4 6 2
4944 1 0 -2.590051681613346 -6.802680285862856 -5.536480013721329 -5 0 -1
622 1 0 -3.1946820315647697 -6.603548317462145 -3.22321792023944 1 -10 1
4573 1 0 -1.630701393088267 -5.720256491046305 -6.742629621226056 6 5 -4
4841 1 0 -4.409909568162057 -6.819311639897175 -2.4950393076512327 -2 -2 -1
1914 1 0 -3.268050562331169 -5.382407308201691 -4.170007996406871 8 -3 3
4946 1 0 -1.2656120885096875 -6.346358055535357 -5.8474704826003245 -2 -3 3
2863 1 0 -1.8146445449304878 -4.815426888928126 -6.141480735705108 -4 1 -1
2443 1 0 -1.187670023776814 -5.598363154181836 -4.372553676743759 0 5 4
626 1 0 -8.569075126397092 -4.480406089668283 -4.95209998213277 1 -2 -4
2358 1 0 -8.02448591783698 -4.294393775641279 -3.6800712588484954 -7 6 3
862 1 0 -5.656286650119482 -7.003812553898133 -9.133043778466211 6 3 -4
882 1 0 -2.0132899895775482 -8.633741644231847 -1.9271650910263682 -7 11 -4
4844 1 0 -4.194304684140778 -8.984075632687698 -2.199277633325236 1 2 4
4692 1 0 -3.3761285868492497 -2.1738930436073725 -1.0537261342409305 -4 -2 4
1959 1 0 -6.595157612860971 -6.461180517396057 -5.539209686734065 0 -3 -2
2362 1 0 -5.362276112214102 -4.786901272111145 -5.11868066983093 -1 0 -2
213 1 0 -5.289998115268375 -6.719968931014277 -4.501451833811126 -1 -4 -2
1724 1 0 -5.820179899640446 -3.54402583218243 -6.108555696994606 -3 5 6
3624 1 0 -5.61942963556139 -5.570042878775833 -2.8864647215037644 -9 1 -4
1830 1 0 -4.306619434176936 -3.6090907688844345 -4.870123207808086 -2 9 11
4289 1 0 -4.847861057550184 -5.233609511272308 -5.923479354360028 -2 -1 2
1097 1 0 -4.376422216858738 -6.311667471672671 -5.819188611775979 8 -4 5
4076 1 0 -5.2742000127697235 -3.83170152156453 -4.209864687134475 -1 0 3
3455 1 0 -4.5682795354551935 -5.929127028417907 -7.681327063966216 4 4 -1
241 1 0 -6.423364693023779 -4.75488939844764 -4.803060268056598 -7 -1 -3
2244 1 0 -2.738682347777086 -4.594277879381553 -3.44182452328742 -2 3 9
3083 1 0 -2.667745056179493 -5.974907662705965 -6.25105037332339 6 -1 7
3813 1 0 -4.490396062221905 -5.5551460329049345 -4.831675216082451 11 14 2
1050 1 0 -1.8872987177276341 -5.72678062415029 -5.52736722786338 4 -3 1
4766 1 0 -4.12141135797404 -4.537240323468566 -5.432043894292196 5 -8 6
5162 3 -1 -0.7311755273616445 -4.874920153994993 -7.901825286156187 2 -1 0
1339 1 0 -1.499008552426556 -4.785130844413661 -5.124678192077242 0 1 -1
756 1 0 -2.678988302801524 -4.958992376532909 -6.80893582408533 -8 -2 2
3234 1 0 -2.1417954496944764 -5.655353655184749 -4.068395013956054 1 2 1
2814 1 0 -0.06212634185516208 -0.9812630165442009 -0.3710618930709124 -5 -5 0
335 1 0 -8.662293769511113 -0.917316974947413 -5.044397084723675 -1 0 -2
2983 1 0 -7.11456027297976 -5.236719331566411 -6.503209391713112 7 3 0
2132 1 0 -9.014489350373111 -2.951272002300107 -6.056186308027675 -6 -4 -1
4506 1 0 -7.888671822822751 -3.2803349024974446 -4.156775163964548 2 6 6
4653 1 0 -6.014870411765003 -3.551879096634446 -5.083214727275015 -2 2 4
3739 1 0 -4.621998206342161 -1.076134533730718 -4.3259437622477925 0 -4 5
2017 1 0 -6.937395632419346 -1.446034631818721 -5.835835278146018 -3 -7 2
2251 1 0 -7.508232573770369 -4.403983395150629 -4.653389055515938 -2 -6 9
569 1 0 -6.718794926428311 -2.3863784085313497 -4.8921048187360485 -8 1 0
1791 1 0 -5.850662255138072 -1.9112798097047374 -4.769027581361851 -1 1 -4
1194 1 0 -4.894153223363317 -2.2039415747969375 -6.250271873193771 4 -11 7
1294 1 0 -5.925572657020746 -5.89053921599067 -4.515641346824035 7 -4 5
3005 1 0 -3.7484439831084098 -4.481259269193477 -4.312537843505188 -1 -1 -7
3340 1 0 -5.7259159902869765 -2.929050470460128 -4.192160296212808 -3 -2 -1
2535 1 0 -3.5919130868202513 -1.1542427482432007 -5.255207471890945 4 3 -2
1010 1 0 -3.320528834868372 -3.6830741754001455 -5.481087260872535 2 10 4
5189 3 -1 -3.602340216300928 -2.8380093645855284 -4.574186942125761 6 5 4
4152 1 0 -3.348964128997453 -1.7445208311693987 -3.7769890742944208 0 -1 3
1753 1 0 -2.28798629109371 -1.3616137541958917 -3.655536498413178 -2 4 3
2218 1 0 -0.08233017109122187 -0.06538832897233604 -7.91035205017254 -7 2 6
942 1 0 -4.410227771502884 -9.121692688184734 -6.63051292471389 1 -12 0
41 1 0 -1.9454242388428709 -2.446509508857762 -4.572420764810497 -4 -1 -2
732 1 0 -1.4163411848989416 -2.7278144940025566 -3.4817083034035416 -5 -2 -6
3888 1 0 -8.643303184603825 -2.364855314799102 -5.145227136097254 0 6 -6
5156 3 -1 -7.105473487479294 -3.525513914219472 -5.090981873214849 -5 5 0
1501 1 0 -8.05200166767959 -2.1162491664314143 -4.414743207420383 -2 2 13
821 1 0 -6.619596835127811 -4.379713678553969 -3.8091127823737114 3 5 -1
4355 1 0 -8.304700148560924 -1.2835684821789624 -3.6940090898504883 -1 -7 6
4516 1 0 -6.1681531747213265 -0.30225763113929993 -6.114170829732009 -8 4 1
2407 1 0 -4.469708438070766 -0.7224758663341859 -2.2624417623655013 8 -2 -3
1481 1 0 -6.497632334735299 -9.41804415107445 -7.038829255219039 7 -3 -5
2302 1 0 -5.969774149265172 -1.7703246628409124 -6.006626547391814 -3 4 3
2685 1 0 -6.257308322388679 -0.8767716592750237 -5.189470720897955 1 -7 0
4125 1 0 -8.907153411461408 -2.4586014505968885 -8.6236072389468 -1 -3 1
1370 1 0 -2.7262818628357923 -8.622945827736938 -4.79788710335507 8 -7 3
3616 1 0 -9.341595134460626 -0.5186451522676556 -5.8016065032278075 -2 -4 -6
272 1 0 -3.787353986657765 -0.8223337202107714 -3.5517956557080597 5 0 2
2450 1 0 -5.729484801343206 -2.5897842196325005 -8.185853975335906 11 3 3
4390 1 0 -5.741603550530558 -0.7594472829832739 -3.948370565289183 2 0 -5
3433 1 0 -7.170690666353396 -1.3754050283309098 -4.522194308376909 -4 1 6
1005 1 0 -5.108545679509277 -1.4186122031999702 -5.3667634680889265 4 -9 3
4706 1 0 -1.190792464590949 -0.388845395178965 -2.4008651003797157 6 10 2
4103 1 0 -5.664543419678164 -2.163725887738538 -0.6057662649716793 -1 12 -5
2176 1 0 -3.122278370037807 -1.2302840599956983 -2.8427765922294306 -12 5 7
1443 1 0 -1.6340512450471767 -3.40684614576387 -1.5582906421271234 -4 4 -7
566 1 0 -4.245777241230122 -2.5181967361297506 -5.51490304597864 -4 0 -1
5095 2 1 -4.356312104902812 -1.2754995808672245 -6.30090029391352 8 2 -5
1089 1 0 -0.3521537118982163 -1.638696234709693 -7.1049339464262316 -5 8 -6
4199 1 0 -3.0493259882197057 -0.7491697907241157 -4.307287601518096 1 -1 1
1956 1 0 -1.5515622373826048 -3.319285402551645 -2.6367139956901235 1 5 1
419 1 0 -2.0526508766478537 -1.553464769504731 -6.218345494939211 12 0 -4
66 1 0 -1.7217064166405587 -1.9499541832846745 -2.9387478417351094 -6 -3 -1
303 1 0 -7.4756276793862835 -9.385273132854573 -0.8343086450480612 1 6 -3
3535 1 0 -3.9463787240575856 -9.176507700360752 -9.385376248978924 -1 -9 1
797 1 0 -0.3798582147868039 -5.213418023203193 -6.398755564410868 6 -8 -5
5159 3 -1 -8.40349235674194 -0.5136308306783182 -9.42000770189244 2 3 4
1148 1 0 -9.082015551381957 -9.2123941150044 -4.628277379960834 3 -5 4
2766 1 0 -8.828842922753418 -5.662986110302411 -7.1867140913098915 11 7 -2
2335 1 0 -6.222623633134569 -8.270203709589483 -2.154842683126385 -12 -4 -1
1849 1 0 -0.827502717234669 -5.8412280460729615 -7.619266853560476 -13 5 -4
72 1 0 -1.451870806422459 -3.0177456894115604 -8.089463814087344 -3 -2 -9
994 1 0 -5.817245837305637 -7.603983532314284 -2.9184612850344793 1 2 0
3540 1 0 -5.455089644981527 -0.1818037634468066 -8.1755795887494 2 -10 0
1653 1 0 -9.28642599486959 -0.7405279828583655 -8.306740778882828 -4 0 0
2472 1 0 -6.58048660906224 -8.254393536049117 -4.718195083694893 -3 0 4
4260 1 0 -6.480786679982691 -7.989211448376908 -1.1611474977537153 5 -6 -2