LAMMPS data file via write_data, version 28 Oct 2021, timestep = 10000000

1518 atoms
11 atom types
1000 bonds
1 bond types
500 angles
1 angle types

-12.431255939288594 12.431255939288594 xlo xhi
-12.431255939288594 12.431255939288594 ylo yhi
-12.431255939288594 12.431255939288594 zlo zhi

Masses

1 15.9994
2 1.00794
3 22.989769
4 35.453
5 60
6 60
7 60
8 15.9994
9 1.00794
10 22.989769
11 35.453

PairIJ Coeffs # lj/cut/coul/long

1 1 0.155354 3.169 9
1 2 0 0 9
1 3 0.234061 2.66425 9
1 4 0.044567 3.99975 9
1 5 0 0 9
1 6 0 0 9
1 7 0 0 9
1 8 0 0 9
1 9 0 0 9
1 10 0 0 9
1 11 0 0 9
2 2 0 0 9
2 3 0 1.07975 9
2 4 0 2.41525 9
2 5 0 0 9
2 6 0 0 9
2 7 0 0 9
2 8 0 0 9
2 9 0 0 9
2 10 0 0 9
2 11 0 0 9
3 3 0.352644 2.1595 9
3 4 0.067146 3.495 9
3 5 0 0 9
3 6 0 0 9
3 7 0 0 9
3 8 0 0 9
3 9 0 0 9
3 10 0 0 9
3 11 0 0 9
4 4 0.0127851 4.8305 9
4 5 0 0 9
4 6 0 0 9
4 7 0 0 9
4 8 0 0 9
4 9 0 0 9
4 10 0 0 9
4 11 0 0 9
5 5 0 0 9
5 6 0 0 9
5 7 0 0 9
5 8 0 0 9
5 9 0 0 9
5 10 0 0 9
5 11 0 0 9
6 6 0 0 9
6 7 0 0 9
6 8 0 0 9
6 9 0 0 9
6 10 0 0 9
6 11 0 0 9
7 7 0 0 9
7 8 0 0 9
7 9 0 0 9
7 10 0 0 9
7 11 0 0 9
8 8 0 0 9
8 9 0 0 9
8 10 0 0 9
8 11 0 0 9
9 9 0 0 9
9 10 0 0 9
9 11 0 0 9
10 10 0 0 9
10 11 0 0 9
11 11 0 0 9

Bond Coeffs # harmonic

1 100000 1

Angle Coeffs # harmonic

1 100000 109.47

Atoms # full

400 0 4 -1 -12.002122170739446 -9.522201057127246 -7.220929809886856 0 -1 -6
797 56 1 -0.8476 -9.216779950947682 -11.137776149309389 -12.084118157490078 -35 -47 2
795 56 2 0.4238 -9.419665694622717 -10.484252903552349 -11.354914652408732 -35 -47 2
881 175 1 -0.8476 -4.391403927434528 -4.759331706474514 -7.886893617933093 -40 -8 7
1139 175 2 0.4238 -4.829609172352368 -5.137220125353753 -8.702472690918178 -40 -8 7
1147 50 2 0.4238 -11.296271455902126 -7.614278729783603 -7.527972499068826 -52 -33 2
927 91 2 0.4238 -9.34256297586832 -7.529743355580714 -12.371979051035138 -40 -3 -18
912 280 2 0.4238 -6.573003229286891 -5.545716649325877 -10.42679613639296 -35 -44 -4
645 80 2 0.4238 -6.145213063214737 -11.386682966052472 -12.019837604728584 -36 -13 18
1143 265 2 0.4238 -10.746604433952239 -5.258242360396273 -4.660910568734296 -44 -1 -16
1443 428 2 0.4238 -12.052709763954725 -5.887551333449202 -12.008655326299497 -48 -45 9
1141 265 1 -0.8476 -10.273702687459231 -5.099607044067416 -5.527623900024952 -44 -1 -16
895 439 2 0.4238 -7.516772957961619 -9.806859057357501 -6.973095705466507 -38 -14 11
671 241 2 0.4238 -4.754193239431209 -8.238813203927954 -7.3057181096372545 -67 -35 23
835 68 2 0.4238 -9.574332222877516 -9.32209225581845 -9.722756474379413 -59 -21 0
1464 498 2 0.4238 -7.700505672646984 -8.05601549707162 -9.551704728865936 -26 -42 25
1382 440 2 0.4238 -9.634840098827615 -4.1553876530122995 -11.964385038410814 -56 -17 5
349 206 2 0.4238 -5.174940761552569 -7.135902255000204 -9.36793554990265 -57 -20 -20
1516 156 1 -0.8476 -12.259250428138966 -9.999647006952785 -12.120793187162825 -39 -23 4
1390 176 1 -0.8476 -10.115491855211223 -8.707975110013045 -4.835427650411371 -49 -42 -11
1380 440 1 -0.8476 -8.9888380753791 -4.802408124197533 -12.369402591135529 -56 -17 5
1214 498 1 -0.8476 -8.045133118307206 -8.510893200557344 -10.37286926819642 -26 -42 25
874 68 1 -0.8476 -10.457349463153069 -9.733986182101056 -9.94773886019262 -59 -21 0
1014 348 2 0.4238 -6.842350035621848 -11.959513769819358 -5.260423987699934 -62 -18 17
1391 176 2 0.4238 -10.766512258122802 -9.083318184107236 -5.495187851601937 -49 -42 -11
611 468 2 0.4238 -4.307964098227643 -10.331433912462835 -9.250508661266535 -42 -41 3
215 387 2 0.4238 -8.743918550897773 -8.3483983623651 -5.7945714716824295 -45 -37 5
610 468 2 0.4238 -5.298495013675104 -11.628375084960943 -9.192201322366497 -42 -41 3
1472 156 2 0.4238 -11.53491223221027 -9.906534857507356 -11.43766986664583 -39 -23 4
1213 498 2 0.4238 -7.275515231253573 -8.84940735466805 -10.914246681019518 -26 -42 25
891 439 2 0.4238 -6.575282350039895 -10.786339435392854 -7.879087861086091 -38 -14 11
1182 265 2 0.4238 -10.575249357147587 -5.775223543757827 -6.200383210913881 -44 -1 -16
213 387 1 -0.8476 -8.053381869611108 -8.118859235479462 -6.4804753862444455 -45 -37 5
114 206 2 0.4238 -4.1578980308688624 -6.722632468950637 -10.576835952596763 -57 -20 -20
1394 50 2 0.4238 -11.558485393043203 -6.288809133172821 -8.445022998333682 -52 -33 2
348 206 1 -0.8476 -5.081044931889293 -6.605725681859625 -10.210603901317846 -57 -20 -20
1378 440 2 0.4238 -8.519474596533565 -5.303879257624598 -11.642616494651405 -56 -17 5
669 241 2 0.4238 -6.297654824440233 -7.707471380250374 -7.350551203361607 -67 -35 23
1145 50 1 -0.8476 -10.942997147551324 -6.713690227985446 -7.781213128741134 -52 -33 2
344 414 2 0.4238 -11.932805066360467 -4.160585071515541 -6.126063977283968 -33 -35 -7
430 360 1 -0.8476 -8.550833881955906 -5.605868824086858 -8.001198726759355 -21 -32 11
429 360 2 0.4238 -9.49057251940648 -5.899541416689129 -7.826152952255888 -21 -32 11
431 360 2 0.4238 -8.392059535458845 -4.719609599735727 -7.5660799053619305 -21 -32 11
873 68 2 0.4238 -11.101568062127123 -9.570200453427635 -9.200644717694736 -59 -21 0
670 241 1 -0.8476 -5.443335195906667 -7.778568529220893 -7.865406702855482 -67 -35 23
893 439 1 -0.8476 -7.188349579722138 -10.744099565192382 -7.090191469839293 -38 -14 11
988 105 2 0.4238 -8.874763849012446 -11.127899745219024 -7.395265832546316 -38 -49 20
989 105 1 -0.8476 -9.71930315014222 -11.542430042897674 -7.734251247002995 -38 -49 20
612 468 1 -0.8476 -4.791354486423102 -10.963034013099861 -8.644366332324948 -42 -41 3
991 105 2 0.4238 -10.491581658488311 -10.941417354343976 -7.52842904395837 -38 -49 20
214 387 2 0.4238 -8.334199757456254 -7.295464236478919 -6.973582972018486 -45 -37 5
913 280 1 -0.8476 -7.572579762934671 -5.524083361075693 -10.446073392719788 -35 -44 -4
1170 280 2 0.4238 -7.926169913311973 -5.6260151132146206 -9.516246829065881 -35 -44 -4
1356 84 2 0.4238 -9.490282029725662 -6.901316134709378 0.49088586315243177 -43 -27 -9
328 69 2 0.4238 -8.999815427857005 -5.833470279512105 -3.935659602168709 -15 -24 8
1067 256 2 0.4238 -8.824671269038841 -9.28658125931349 -0.2148509842183568 -37 -28 9
456 5 1 -0.8476 -12.23204745781174 -10.577037795801118 1.636103932594244 -35 -55 -19
712 59 2 0.4238 -5.937151450441537 -4.4535885220763625 -3.9925815207140616 -21 -22 -13
714 59 1 -0.8476 -5.96254330146475 -4.791130266843608 -3.0516171242603036 -21 -22 -13
1137 217 1 -0.8476 -4.7049213755925905 -4.202926782833503 4.0353692268850665 -57 -26 9
937 59 2 0.4238 -5.920157636874269 -5.790223641504652 -3.054644464866211 -21 -22 -13
1049 432 1 -0.8476 -6.688380027430748 -10.366207965468586 -1.9544867139474942 -44 -19 -13
1286 432 2 0.4238 -6.44748956145978 -11.336401708739611 -1.9807348400016558 -44 -19 -13
1275 149 2 0.4238 -12.242911065195726 -7.358239236518701 -1.2113868869732993 -42 -38 3
1063 256 1 -0.8476 -8.526829307850576 -10.240657768123631 -0.18289452394373207 -37 -28 9
1051 432 2 0.4238 -5.857240052406974 -9.814429706480347 -2.0233358640352197 -44 -19 -13
171 258 2 0.4238 -4.627100897998043 -10.086532726563936 1.16931077415237 -54 -18 1
806 452 2 0.4238 -7.42859536349861 -4.24117301614328 -1.531840135761179 -74 -14 -22
1345 429 1 -0.8476 -10.977268977173292 -8.195295020505673 -1.8073032641846112 -49 -17 21
1353 84 1 -0.8476 -8.966448775446455 -7.548748731164478 -0.06266889345332771 -43 -27 -9
1387 176 2 0.4238 -9.991014023180865 -9.356235082493317 -4.084256583823356 -49 -42 -11
170 258 2 0.4238 -4.459182149800432 -10.307072504079507 2.7785880584766343 -54 -18 1
1106 476 1 -0.8476 -7.60184150458842 -10.748133223775847 2.5006180440491104 -43 -10 -21
324 69 2 0.4238 -9.274830970493328 -7.432237958954026 -4.1225191799765355 -15 -24 8
1348 429 2 0.4238 -10.82561000501314 -9.104494080929717 -2.1950532148774418 -49 -17 21
326 69 1 -0.8476 -8.687902142527319 -6.750239776393451 -3.6861863854960255 -15 -24 8
1344 429 2 0.4238 -10.2189939339707 -7.96179949167153 -1.1986224801011947 -49 -17 21
1384 217 2 0.4238 -5.375651561324069 -4.271841668743521 3.29688099339881 -57 -26 9
1395 84 2 0.4238 -8.006135964719977 -7.524125099521872 0.2151549644219788 -43 -27 -9
165 482 2 0.4238 -4.4240901997132696 -5.546177000427163 0.03231375509783341 -48 -36 -1
1104 476 2 0.4238 -6.642137620865875 -10.52778793676585 2.3262331989599865 -43 -10 -21
1433 482 1 -0.8476 -5.218168935437078 -5.129976056076308 0.4752690940843962 -48 -36 -1
172 258 1 -0.8476 -5.066232544078454 -9.968038651567685 2.0598813769630517 -54 -18 1
1432 482 2 0.4238 -5.227189189332113 -4.14760995309379 0.28853726556243586 -48 -36 -1
866 357 2 0.4238 -6.090913612372887 -8.522599930496614 1.5142849263188936 -38 -44 11
1285 187 1 -0.8476 -4.280182303061228 -9.937737299930617 -3.9088625470663274 -65 -22 -9
1064 256 2 0.4238 -7.816309445957522 -10.39122672186987 -0.8702690320123398 -37 -28 9
1108 476 2 0.4238 -8.138608327600789 -10.576764535134833 1.6744780500660195 -43 -10 -21
760 326 1 -0.8476 -6.044753013475242 -7.561169772987521 -3.7457315791169776 -22 -2 6
1274 408 2 0.4238 -11.158808051941218 -11.838418562924819 1.1185510891765862 -31 -31 -5
758 326 2 0.4238 -5.9442576201073996 -8.540469812372372 -3.9214166767297822 -22 -2 6
60 230 2 0.4238 -9.275200318219492 -9.79066991977166 3.8791810498858723 -44 -26 11
876 159 1 -0.8476 -7.574286404518847 -5.34856951405263 2.4620551859406703 -22 -34 31
1134 159 2 0.4238 -6.795637183567313 -5.414458781278726 1.8380705420673618 -22 -34 31
877 159 2 0.4238 -8.284705286793777 -5.992335900359519 2.1776909917393468 -22 -34 31
244 492 2 0.4238 -10.74723892534868 -5.774759517526535 2.219477985718049 -57 -33 -20
1276 408 2 0.4238 -9.72778814409949 -11.504844259566662 0.4061481773756732 -31 -31 -5
245 492 2 0.4238 -10.191306815657406 -4.87917530957849 0.9722908890801758 -57 -33 -20
246 492 1 -0.8476 -10.236963947029665 -5.7998900456479285 1.3598380507821748 -57 -33 -20
77 264 2 0.4238 -7.664647336213923 -11.928785087076621 3.5971263188454543 -47 -9 35
762 326 2 0.4238 -6.98100607796563 -7.279277498632839 -3.955398440805636 -22 -2 6
1487 408 1 -0.8476 -10.434836744631905 -12.200792675466278 0.5315726469236246 -31 -31 -5
1240 382 2 0.4238 -10.810637543943438 -11.31945337369904 -3.005859764146672 -11 -36 19
1239 382 2 0.4238 -9.308228025165368 -10.904821878834426 -2.518566908117247 -11 -36 19
1050 250 2 0.4238 -11.309292249511438 -4.956947109730703 -2.303238091904431 -49 -15 -9
1044 250 2 0.4238 -11.085631944387334 -6.546683947866714 -2.6021028852190575 -49 -15 -9
1048 250 1 -0.8476 -11.438721589497725 -5.6878830235583955 -2.973292785221311 -49 -15 -9
576 343 2 0.4238 -10.968876787465769 -7.904900820558278 4.100763292270955 -65 -24 -28
867 357 2 0.4238 -5.846705248050584 -7.132309200606537 0.69327243121373 -38 -44 11
868 357 1 -0.8476 -6.531149833253068 -7.804761359456361 0.9749401730816807 -38 -44 11
1238 382 1 -0.8476 -10.165349640739988 -10.562420437444214 -2.9034004771832205 -11 -36 19
808 452 2 0.4238 -8.128759415348018 -5.488944539057466 -0.7447923054542365 -74 -14 -22
613 343 2 0.4238 -12.378648625555787 -7.420321655418737 3.434179162185753 -65 -24 -28
615 343 1 -0.8476 -11.568830187232034 -7.1213973396862285 3.938987431685973 -65 -24 -28
807 452 1 -0.8476 -8.132314807892678 -4.496686117397846 -0.8689034673959704 -74 -14 -22
1412 36 2 0.4238 -4.435571598045415 -5.013074090126443 6.374310165141775 -58 -19 28
199 405 1 -0.8476 -9.32903660567741 -6.302384800785213 7.361928562281825 -42 -34 -6
1414 36 2 0.4238 -5.732484181105868 -5.966289643736207 6.650002131121582 -58 -19 28
1413 36 1 -0.8476 -5.429431739028149 -5.08412493051776 6.289533238116665 -58 -19 28
1016 104 2 0.4238 -9.779974577413924 -10.099874529405358 7.51614563554746 -47 -42 -11
198 405 2 0.4238 -8.985385127878732 -6.441750005661446 6.433233510612759 -42 -34 -6
200 405 2 0.4238 -9.096804514395881 -7.09498516028613 7.925707165455133 -42 -34 -6
826 48 2 0.4238 -8.345804953116948 -4.185174727326864 8.668249812128721 -44 -29 21
1325 40 1 -0.8476 -6.639415952694987 -8.033835564564683 9.311879998008628 -26 -28 -1
421 259 1 -0.8476 -7.147928861408648 -12.285115276702346 7.301966662152843 -33 -21 57
55 230 2 0.4238 -10.809007253897526 -10.279264177838634 4.153625807494414 -44 -26 11
1366 40 2 0.4238 -6.973820519266566 -7.123473154287834 9.55561555983618 -26 -28 -1
513 261 1 -0.8476 -7.9018703404092685 -6.806542572385768 5.196975090851502 -25 -46 24
1101 350 1 -0.8476 -12.260773587987718 -11.631443369749064 4.808548982255015 -64 -40 9
58 230 1 -0.8476 -10.079084359344776 -9.66893774254593 4.46137067277942 -44 -26 11
1075 204 1 -0.8476 -5.03231542282213 -5.5931583027589395 11.125871283329339 -22 -12 -2
1074 204 2 0.4238 -5.100026534969416 -6.560583118994288 11.369793072993733 -22 -12 -2
1326 40 2 0.4238 -5.990897187139038 -8.347442366644511 10.005470276263726 -26 -28 -1
511 261 2 0.4238 -7.335188352370081 -7.478472301336418 5.673813538152803 -25 -46 24
423 259 2 0.4238 -7.787453961336053 -11.518935575808987 7.364971549172893 -33 -21 57
31 114 2 0.4238 -4.156740258244357 -11.754531405138586 7.688066971143041 -48 -29 11
389 213 2 0.4238 -11.803115933941548 -5.087968349478498 10.690297717072397 -25 -51 24
732 173 2 0.4238 -4.929253744557112 -8.731982659096454 6.982326719336218 -34 -23 -19
514 261 2 0.4238 -7.497805023695983 -6.60250277960129 4.305295730652915 -25 -46 24
800 56 2 0.4238 -9.326199265320627 -10.69101055428714 11.890462993887358 -35 -47 1
848 238 2 0.4238 -11.707705917139384 -10.09163938796499 10.571614867667996 -46 0 -9
1463 420 1 -0.8476 -12.274513996584325 -12.25157275451008 10.735624036453466 -38 -17 8
846 238 2 0.4238 -10.901723974578953 -8.671444981778034 10.564631900023848 -46 0 -9
847 238 1 -0.8476 -11.359117824722544 -9.353490567667478 9.994019961024136 -46 0 -9
667 132 1 -0.8476 -7.511388756485528 -5.442024229885298 10.141434118289208 -45 -41 21
648 344 2 0.4238 -5.2735612465900035 -9.310635428156846 11.670573269001185 -46 -32 6
776 131 1 -0.8476 -9.341931764752307 -8.825401685581308 8.619494175880071 -57 -41 -14
683 448 2 0.4238 -10.083727868692321 -12.120613595389791 8.55105878954236 -49 -15 5
531 104 2 0.4238 -10.17747637801464 -10.929638384224415 6.167037651480307 -47 -42 -11
774 131 2 0.4238 -10.153892361219238 -9.05949636231848 9.154202689303531 -57 -41 -14
649 344 1 -0.8476 -4.775456036876203 -8.615229640603106 11.152600935867461 -46 -32 6
1367 136 2 0.4238 -12.035316064977696 -6.5204637488978 5.6229127206298095 -62 -31 -1
20 0 3 1 -10.9036092596137 -4.514335134669463 7.64801817733132 -10 -16 -17
657 213 1 -0.8476 -11.036117920760846 -4.9579209230147026 10.061970916544595 -25 -51 24
656 213 2 0.4238 -10.230702651112583 -4.662508391575747 10.57580978356227 -25 -51 24
646 80 1 -0.8476 -6.193542637702619 -10.563425995730157 12.27707238616199 -36 -13 17
1368 136 1 -0.8476 -12.2598887196217 -6.170890236745771 6.532505349688666 -62 -31 -1
227 254 1 -0.8476 -7.374123779293313 -11.356325623436042 10.003895048753208 -45 -12 11
228 254 2 0.4238 -6.950995845362299 -11.646909417949916 9.145689345046208 -45 -12 11
644 80 2 0.4238 -6.654033799344541 -10.777448385256168 11.415599325782217 -36 -13 17
476 254 2 0.4238 -8.300510915558416 -11.728452122691772 10.061532121238454 -45 -12 11
668 132 2 0.4238 -6.533610672857205 -5.470288040442854 10.349146968102104 -45 -41 21
786 104 1 -0.8476 -9.883879933112565 -11.01190706218804 7.1194168791188694 -47 -42 -11
710 132 2 0.4238 -8.013774914001573 -5.123031816175504 10.945079086366878 -45 -41 21
924 91 1 -0.8476 -9.727641974114858 -7.52270073399037 11.56767985682189 -40 -3 -19
923 91 2 0.4238 -9.518959391748078 -6.650094929839127 11.126087576411575 -40 -3 -19
775 131 2 0.4238 -8.53477756215139 -8.854411154134473 9.20911576098979 -57 -41 -14
1135 217 2 0.4238 -5.056176822597072 -4.666241054878585 4.8489741488169535 -57 -26 9
734 173 1 -0.8476 -5.656044178980493 -8.067273173738624 6.80932361098877 -34 -23 -19
1007 173 2 0.4238 -6.201320850409736 -7.946156259398013 7.638779523524381 -34 -23 -19
110 93 1 -0.8476 -10.171525310567533 -2.860737359947535 -10.952442967458902 -66 -33 -22
112 93 2 0.4238 -10.040830557875264 -2.602475185133681 -9.995252963761097 -66 -33 -22
75 191 2 0.4238 -5.70226859976913 0.7336561323146658 -9.944117602200205 -54 -55 7
335 117 1 -0.8476 -7.6292259767309885 -0.3223327808902283 -6.983373964349654 -53 -37 -1
378 163 2 0.4238 -11.65679851791692 1.3710376479774151 -11.939600976212196 -59 -23 9
1013 231 1 -0.8476 -4.85111336688148 0.4335104230247957 -5.206734621388782 -33 -12 10
1010 231 2 0.4238 -5.34685451264085 1.2975578462395454 -5.119237484968329 -33 -12 10
1015 231 2 0.4238 -4.267402097572381 0.46481652488066594 -6.01808798256469 -33 -12 10
74 191 1 -0.8476 -4.910290267499352 1.2682626560961694 -10.239006331271137 -54 -55 7
632 86 1 -0.8476 -11.632531160192924 3.0300886507102476 -8.127245819089525 -47 -53 3
108 93 2 0.4238 -10.770678625034815 -2.195728241277095 -11.398280721889336 -66 -33 -22
1114 0 4 -1 -8.62503070669283 2.8581908640906857 -7.241174149149522 0 -15 -18
248 435 2 0.4238 -7.654343368709563 -0.42918850140738485 -11.23853258076623 -49 -46 6
221 249 2 0.4238 -5.164433254292447 -2.1773625744375327 -9.638234862055157 -37 -42 -12
537 62 2 0.4238 -7.379014918190935 -2.933333475129688 -8.492911991050587 -58 -31 9
1042 458 2 0.4238 -12.405930737055385 -1.519136231249588 -4.880655606335409 -19 -21 1
633 86 2 0.4238 -11.846013470399813 4.004595299611456 -8.196204948033422 -47 -53 3
290 435 1 -0.8476 -7.152807594080089 -0.3575094478764136 -10.376374251298717 -49 -46 6
634 86 2 0.4238 -10.707558640765495 2.916348408191176 -7.7646410291294385 -47 -53 3
220 249 1 -0.8476 -4.182111898556769 -2.354443123719811 -9.577568255272938 -37 -42 -12
792 62 2 0.4238 -7.1357373508204684 -3.7241632982089676 -9.900751599746087 -58 -31 9
377 163 1 -0.8476 -10.723382513005697 1.664252079517894 -11.732832552339499 -59 -23 9
289 435 2 0.4238 -7.094717007653005 -1.259510773936075 -9.948574795806355 -49 -46 6
376 163 2 0.4238 -10.513906951769476 1.4598589011134955 -10.776622996172133 -59 -23 9
793 62 1 -0.8476 -7.008415472643496 -2.8573857595353953 -9.41859080442237 -58 -31 9
371 117 2 0.4238 -7.729854822259288 0.6377733936322834 -7.244262814934924 -53 -37 -1
76 191 2 0.4238 -5.122739472192903 2.2431630958028013 -10.17246555877925 -54 -55 7
1372 292 2 0.4238 -6.556612042424212 3.8180008419908233 -11.382564060964315 -36 -23 -16
977 475 2 0.4238 -9.90684064945874 -2.2393124599812104 -7.820109967479988 -16 -48 9
978 475 1 -0.8476 -10.389109799184682 -1.7624943929420098 -8.55499370412845 -16 -48 9
929 475 2 0.4238 -9.891439184398706 -0.9287683784174323 -8.794196792016026 -16 -48 9
1370 292 2 0.4238 -7.583897161545917 3.0436673201850333 -12.388397143055087 -36 -23 -16
1371 292 1 -0.8476 -6.637008154289578 3.3363430033885724 -12.255223954220021 -36 -23 -16
957 307 1 -0.8476 -9.439361219168203 0.7464913657755723 -9.417111468551834 -31 -14 11
392 302 2 0.4238 -6.7565374175545285 3.5428827776233067 -4.5422005354781625 -38 -30 -12
336 117 2 0.4238 -7.407808169589383 -0.3817958489996425 -6.010013101821189 -53 -37 -1
837 192 2 0.4238 -9.557670531604543 2.0876225018685037 -5.433453969269661 -34 -37 -17
962 433 2 0.4238 -12.016057507236098 1.4660752609088945 -6.853939205603177 -33 -12 -20
959 307 2 0.4238 -9.288188614564675 1.3931011527532515 -8.669424375253156 -31 -14 11
574 192 1 -0.8476 -9.983033153561285 1.6189547181093715 -4.659238072625731 -34 -37 -17
1216 358 2 0.4238 -9.376676448780584 -1.4042902120474157 -4.207083016895222 -31 -49 0
909 307 2 0.4238 -8.568279069629622 0.5455712393320997 -9.865263579637496 -31 -14 11
390 302 2 0.4238 -6.827187439431602 2.6807832470520836 -5.927264052078782 -38 -30 -12
932 450 1 -0.8476 -8.293240816361367 -3.2045344872943105 -7.047047370802656 -82 -52 -1
391 302 1 -0.8476 -6.310017057628391 2.8313564249176917 -5.084734554377345 -38 -30 -12
1054 243 1 -0.8476 -5.2049094234534845 -3.26191778497272 -5.70427126270067 -42 -1 9
1053 243 2 0.4238 -4.656721232317437 -3.8802427812968947 -6.267438351416022 -42 -1 9
575 192 2 0.4238 -10.12874673173676 0.6571605026166143 -4.890997932891997 -34 -37 -17
931 450 2 0.4238 -8.110421099604741 -2.2308822371868864 -6.9107706000760905 -82 -52 -1
1299 90 1 -0.8476 -7.546187374981736 -2.089741965161217 -4.147119883110383 -64 -56 14
884 450 2 0.4238 -8.807881252995807 -3.559472690697417 -6.266562053033756 -82 -52 -1
1219 358 1 -0.8476 -10.32352550172485 -1.0923787478952427 -4.285703221605125 -31 -49 0
1052 243 2 0.4238 -5.504454124133788 -2.48458614677919 -6.257463477429494 -42 -1 9
1511 90 2 0.4238 -6.791535135006007 -2.6096362210726944 -4.547373617943122 -64 -56 14
1296 316 2 0.4238 -4.3565844479192855 3.180431832670836 -5.363328447637632 -71 -28 12
961 433 1 -0.8476 -12.384706178334369 1.263466280912544 -5.946723170317375 -33 -12 -20
292 196 2 0.4238 -7.06507695049645 3.8099482374482214 -8.823761683442484 -60 -12 -2
958 433 2 0.4238 -11.77872746615077 1.6439069129972896 -5.248119074237728 -33 -12 -20
293 196 1 -0.8476 -6.372348542388115 3.9584908903888696 -9.529492156215989 -60 -12 -2
595 28 2 0.4238 -4.165220985971114 -1.3127500645037422 -12.023231917147502 -35 -63 -3
428 60 1 -0.8476 -8.422101986136468 -3.0861144210981646 3.6348269314034667 -43 -44 7
1426 129 2 0.4238 -4.568137563921689 -1.1257188448690236 0.3511416567202197 -38 -37 -12
29 323 2 0.4238 -8.047961228332829 0.5522201294088145 -1.5939458739245058 -43 -25 -2
372 403 1 -0.8476 -11.46191481993763 -0.507390793511675 2.150868855296828 -54 -28 4
212 43 2 0.4238 -11.536972059722565 0.6205739733060032 -1.8007245222919188 -56 -20 3
967 244 2 0.4238 -4.5951041930834835 -3.81951334769823 -2.479140310066146 -65 -35 1
413 403 2 0.4238 -10.786854892004992 0.1867840339106337 1.9010519009055447 -54 -28 4
427 60 2 0.4238 -7.931022138190368 -3.912480437669668 3.359231409098614 -43 -44 7
474 23 1 -0.8476 -6.40629714617165 0.759354685515568 1.0194430632464542 -33 -65 24
268 323 1 -0.8476 -7.228231442090597 0.9870140471993984 -1.966760215093796 -43 -25 -2
70 79 2 0.4238 -8.789146800264303 3.424997013847733 -0.007035939783104794 -52 -36 0
265 323 2 0.4238 -7.439410262696 1.3870453394880666 -2.85859626623135 -43 -25 -2
863 467 1 -0.8476 -8.445557138592608 3.700289468891569 -3.2001436099306506 -41 -18 2
872 179 2 0.4238 -8.286489077394034 -1.4267242368458302 -0.22540380759095058 -32 -29 40
968 244 2 0.4238 -4.373778926972081 -2.7489999137207484 -1.2660353000616986 -65 -35 1
862 467 2 0.4238 -8.753686100207387 2.7848672872541904 -3.4590878025598144 -41 -18 2
184 52 2 0.4238 -9.503705784229046 0.5658630347786797 0.08061280478826838 -55 -65 0
1298 90 2 0.4238 -7.423415001550674 -2.0332273530564926 -3.1562989546677223 -64 -56 14
473 23 2 0.4238 -7.222557110555293 0.21241965941139185 1.2053859902171187 -33 -65 24
1220 358 2 0.4238 -10.730458395874159 -1.0293743111197333 -3.374424349213866 -31 -49 0
914 179 2 0.4238 -7.969472162951992 -2.9837604149306554 0.151088318309327 -32 -29 40
426 60 2 0.4238 -9.055534961373823 -2.817216360514351 2.909258489703115 -43 -44 7
475 23 2 0.4238 -6.464577353696606 1.1423226392704056 0.097525510291117 -33 -65 24
72 79 1 -0.8476 -8.138137164302982 4.095127075169884 -0.3635540666110906 -52 -36 0
609 179 1 -0.8476 -7.680166133200271 -2.0360244171383854 0.28559398013621795 -32 -29 40
452 43 1 -0.8476 -11.661127050826153 -0.364835561152832 -1.9171150086190725 -56 -20 3
417 403 2 0.4238 -12.381885871627434 -0.15375209573484128 1.9817945960569538 -54 -28 4
186 52 2 0.4238 -10.323064948554876 -0.1702431694899449 -1.1249601663828432 -55 -65 0
1425 129 1 -0.8476 -5.033899806217831 -1.90742455351268 -0.0635808773652684 -38 -37 -12
1423 129 2 0.4238 -6.007068649648426 -1.8748035319982357 0.16417214809036373 -38 -37 -12
1506 169 2 0.4238 -4.353859714452781 -0.9447050104046841 3.3084590807061574 -40 -51 18
185 52 1 -0.8476 -9.418323674972779 -0.016785998020768744 -0.7276095333570076 -55 -65 0
4 216 2 0.4238 -5.806503595871062 2.9064721584534556 -2.0509204436526716 -43 -22 4
5 216 1 -0.8476 -5.331520777272347 3.44976051371062 -1.3586617606245035 -43 -22 4
340 339 1 -0.8476 -11.024217138083698 2.406420050310574 -1.4087462534628834 -75 -28 31
665 267 2 0.4238 -4.471730887618145 2.592952574294193 0.43902804886311486 -39 -40 11
339 339 2 0.4238 -11.971933548783433 2.5265558439489766 -1.1131215543344855 -75 -28 31
740 394 1 -0.8476 -10.44561988268458 -3.060487177249266 1.138499794407556 -69 -23 13
488 394 2 0.4238 -10.888160634404372 -2.2264099141745834 1.4678415618605296 -69 -23 13
294 339 2 0.4238 -10.779630079044503 3.135218712903784 -2.0482951187943943 -75 -28 31
73 79 2 0.4238 -7.911977317769663 3.8687626117051437 -1.3109736837318238 -52 -36 0
1319 306 1 -0.8476 -9.877241129616706 1.703972377981728 1.174562313521898 -56 -18 4
1317 306 2 0.4238 -9.72686682882078 2.0067694351881773 2.1156758782936524 -56 -18 4
1264 481 2 0.4238 -6.303671189486308 2.1488341616514077 2.2691471107435195 -27 -50 -12
640 70 2 0.4238 -8.480694438145477 2.8159254338488733 3.3568133413591177 -50 -19 2
1479 481 1 -0.8476 -6.461286310836715 2.869352724497949 2.9444274776242008 -27 -50 -12
1478 481 2 0.4238 -5.914798503422607 2.6857164397145556 3.7615088177136933 -27 -50 -12
1320 306 2 0.4238 -10.415337963202463 2.3904596825442734 0.6855021652148086 -56 -18 4
637 70 1 -0.8476 -9.355532961772225 2.5038465536424788 3.727296401083894 -50 -19 2
741 394 2 0.4238 -10.81233040463144 -3.2996705627043372 0.23944036881665198 -69 -23 13
1491 166 1 -0.8476 -11.169364161910167 -0.1985519527162527 5.227130686708076 -48 -8 45
824 48 2 0.4238 -8.499484952805078 -2.8876013926715522 7.688814401040226 -44 -29 21
825 48 1 -0.8476 -8.899737968988738 -3.3783872239318136 8.462713647630299 -44 -29 21
317 483 2 0.4238 -7.584371254302335 -3.1313960478611893 5.1723583836318525 -38 -30 17
822 143 1 -0.8476 -5.921427371768195 4.112140360499431 7.137213643420644 -33 -23 11
1120 304 2 0.4238 -12.093419105034927 4.08932099901001 5.357987398639235 -53 -43 26
107 112 2 0.4238 -9.245109162610092 -1.6677046682694083 9.248191733948573 -41 -30 -7
522 66 2 0.4238 -8.725885510544817 1.3571204542093103 7.120822204515914 -39 -24 34
1340 281 2 0.4238 -9.443709243854462 0.6447496341631673 12.393843872940923 -56 -46 4
411 436 1 -0.8476 -10.618746085497918 -2.900650497317784 5.900447649717329 -38 -27 15
990 488 2 0.4238 -10.499153229632505 4.005265566759167 4.191804402780022 -33 -35 -22
1342 281 1 -0.8476 -8.654204787067709 0.18564849978369935 11.98653343536797 -56 -46 4
597 28 2 0.4238 -4.726063296842574 -0.7356353290499591 11.418363899887211 -35 -63 -4
756 446 2 0.4238 -11.685118089437902 3.6550621021894507 7.204631530488836 -23 -44 21
520 66 1 -0.8476 -9.396612349210745 1.8742194372272962 6.5891011416348455 -39 -24 34
314 483 2 0.4238 -6.575665446110793 -3.864470986078068 6.226740560768079 -38 -30 17
1489 166 2 0.4238 -10.373235778960222 0.3559411830256476 5.469432217792811 -48 -8 45
982 147 1 -0.8476 -5.426726481598315 1.458773747673968 9.421007845111376 -44 -40 17
1343 281 2 0.4238 -8.963995240261555 -0.6063119525499179 11.460394995186167 -56 -46 4
1492 166 2 0.4238 -11.401726147905313 -0.046266477902880965 4.2665006759608595 -48 -8 45
985 147 2 0.4238 -5.386230948615473 0.4900008896618999 9.176401445232216 -44 -40 17
367 436 2 0.4238 -10.911016468691233 -1.9671813334456871 5.692586381830054 -38 -27 15
315 483 1 -0.8476 -7.2295688389124315 -3.1174023422715162 6.107191334373596 -38 -30 17
561 66 2 0.4238 -10.025339623536693 2.3420188423665795 7.210276508045343 -39 -24 34
146 112 2 0.4238 -10.299663351441987 -0.42519581773062676 9.144774129829916 -41 -30 -7
1508 139 2 0.4238 -8.677571628860363 2.612768687246289 10.153868225179718 -23 -35 -12
410 436 2 0.4238 -9.943673168763647 -3.1968111090514117 5.224756459541279 -38 -27 15
147 112 1 -0.8476 -9.358455799143275 -0.6810817186638811 9.365327950534425 -41 -30 -7
502 446 2 0.4238 -11.71686366497107 3.895375957955487 8.81951530066749 -23 -44 21
757 446 1 -0.8476 -11.124101303591862 3.7567510627198715 8.026162238619609 -23 -44 21
981 147 2 0.4238 -6.310952656656988 1.6593715561186215 9.842786815097607 -44 -40 17
636 70 2 0.4238 -9.2566588983613 2.3195253529938125 4.7051731954851554 -50 -19 2
1509 139 1 -0.8476 -8.308031930933918 2.058395825439673 9.408144264983243 -23 -35 -12
1510 139 2 0.4238 -8.629779816154484 1.1162507084169988 9.502133745481448 -23 -35 -12
175 409 1 -0.8476 -11.971516299522063 -0.0725262854859885 9.376539713021689 -54 -39 -19
260 461 2 0.4238 -7.021373920784727 -0.5656653241849341 10.802450877433515 -36 -43 -16
257 461 2 0.4238 -6.109084295227394 -1.903341487123642 11.01448378125274 -36 -43 -16
258 461 1 -0.8476 -6.218544373568698 -1.0662112328115434 10.478549937717581 -36 -43 -16
673 193 2 0.4238 -5.840162226001666 -1.8720922436273266 7.214294650716848 -50 -34 0
1315 352 2 0.4238 -12.428232161792241 -2.320556660211402 11.785334618234721 -36 -12 4
176 409 2 0.4238 -11.819787499540453 -0.5884174651221734 10.219645836522584 -54 -39 -19
1316 352 1 -0.8476 -11.939810825967859 -1.4623873802416618 11.943395376186231 -36 -12 4
174 409 2 0.4238 -12.377887606900675 0.8142029805795783 9.596919364681938 -54 -39 -19
717 193 1 -0.8476 -5.33095417595354 -1.3538079474234994 7.90137652714105 -50 -34 0
716 193 2 0.4238 -5.843949634330369 -1.3445775532578708 8.759714263034681 -50 -34 0
420 341 2 0.4238 -4.314439431520464 -0.03300750582449119 5.489541508249022 -14 -28 35
156 480 1 -0.8476 -5.11691273504015 2.4440526343166997 5.1077083080464085 -84 -20 -9
1158 3 2 0.4238 -5.160363910933297 2.45893197182912 12.123073672111207 -57 -20 25
393 480 2 0.4238 -4.596529765091449 1.6781645005625503 5.485345937514289 -84 -20 -9
117 4 1 -0.8476 -9.29464405363575 3.5470897846246405 11.7742794113278 -49 -41 13
1157 3 1 -0.8476 -4.180799864153146 2.3434824007019 11.95839567968898 -57 -20 25
119 4 2 0.4238 -9.969353690539858 2.853204504464493 12.025841243594037 -49 -41 13
153 480 2 0.4238 -5.528000279378869 2.9678167581813284 5.853812491137408 -84 -20 -9
1419 464 2 0.4238 -6.115436011003642 4.021564746354478 10.682413485911727 -52 -60 2
1038 165 1 -0.8476 -6.534043674976022 -3.368688451785113 11.935212066396886 -61 -41 8