
group   solvent type 1
5024 atoms in group solvent
group   water   empty
0 atoms in group water
group   ions    type 2 3
180 atoms in group ions
group   wall    type 4 5
0 atoms in group wall
group   flying  type 6 7 8
0 atoms in group flying
group   eq_run  union solvent ions flying
5204 atoms in group eq_run
            
######################################################################
pair_style   lj/cut/coul/long 2.500000 3.500000
kspace_style pppm 0.0001

# LJ (neq? False)
# real lj particles
pair_coeff  * *         1.  1.  2.5   # solvent + ions
pair_coeff  4*5 4*5     0   0   2.5   # wall atoms

        
pair_modify  tail no shift yes mix arithmetic # LB mixing rule
neigh_modify delay 2 every 1 check yes page 500000 one 50000
######################################################################
timestep 0.005000
thermo 2000
fix  eqmd   eq_run nvt temp 1.000000 1.000000 0.500000
run 200 # (neq? False) MD run
PPPM initialization ...
  using 12-bit tables for long-range coulomb (../kspace.cpp:340)
  G vector (1/distance) = 0.7841028
  grid = 32 32 32
  stencil order = 5
  estimated absolute RMS force accuracy = 0.00012099371
  estimated relative force accuracy = 0.00012099371
  using single precision KISS FFT
  3d grid and FFT values/proc = 4913 2048
Per MPI rank memory allocation (min/avg/max) = 5.366 | 5.391 | 5.444 Mbytes
Step Temp Atoms Density TotEng PotEng KinEng E_coul E_vdwl E_long Enthalpy Press 
     400     0.993312     5204     0.752687 -15764.371291 -23516.672443  7752.301152   -65.109924 -23171.256731  -280.305788 -8913.819964     0.990838 
     600     1.000281     5204     0.752687 -15496.217019 -23302.912792  7806.695773   -55.085188 -22973.547453  -274.280151 -7596.240322     1.142623 
Loop time of 0.529902 on 27 procs for 200 steps with 5204 atoms

Performance: 163049.047 tau/day, 377.428 timesteps/s
92.0% CPU use with 27 MPI tasks x no OpenMP threads

MPI task timing breakdown:
Section |  min time  |  avg time  |  max time  |%varavg| %total
---------------------------------------------------------------
Pair    | 0.11279    | 0.18447    | 0.21477    |   7.4 | 34.81
Kspace  | 0.2577     | 0.28946    | 0.35822    |   5.7 | 54.63
Neigh   | 0.016055   | 0.022706   | 0.026583   |   2.2 |  4.28
Comm    | 0.024055   | 0.027462   | 0.03669    |   2.4 |  5.18
Output  | 5.164e-05  | 5.4091e-05 | 7.5164e-05 |   0.0 |  0.01
Modify  | 0.0027734  | 0.0038726  | 0.005375   |   1.2 |  0.73
Other   |            | 0.001877   |            |       |  0.35

Nlocal:        192.741 ave         201 max         183 min
Histogram: 1 2 1 3 3 4 6 5 1 1
Nghost:        1852.74 ave        1889 max        1829 min
Histogram: 1 3 6 6 3 3 1 2 1 1
Neighs:        16541.7 ave       17680 max       15236 min
Histogram: 2 0 1 4 4 4 6 3 2 1

Total # of neighbors = 446626
Ave neighs/atom = 85.823597
Neighbor list builds = 27
Dangerous builds = 0
unfix    eqmd

group   solvent type 1
5024 atoms in group solvent
group   water   empty
0 atoms in group water
group   ions    type 2 3
180 atoms in group ions
group   wall    type 4 5
0 atoms in group wall
group   flying  type 6 7 8
0 atoms in group flying
group   eq_run  union solvent ions flying
5204 atoms in group eq_run
            
######################################################################
pair_style   lj/cut/coul/long 2.500000 3.500000
kspace_style pppm 0.0001

# LJ (neq? False)
# real lj particles
pair_coeff  * *         1.  1.  2.5   # solvent + ions
pair_coeff  4*5 4*5     0   0   2.5   # wall atoms

        
pair_modify  tail no shift yes mix arithmetic # LB mixing rule
neigh_modify delay 2 every 1 check yes page 500000 one 50000
######################################################################
# shake is off; should be a dummy run
timestep 0.005000
thermo 2000
fix  eqmd   eq_run nvt temp 1.000000 1.000000 0.500000
run 0 # (neq? False) MD run
PPPM initialization ...
  using 12-bit tables for long-range coulomb (../kspace.cpp:340)
  G vector (1/distance) = 0.7841028
  grid = 32 32 32
  stencil order = 5
  estimated absolute RMS force accuracy = 0.00012099371
  estimated relative force accuracy = 0.00012099371
  using single precision KISS FFT
  3d grid and FFT values/proc = 4913 2048
Per MPI rank memory allocation (min/avg/max) = 5.366 | 5.391 | 5.444 Mbytes
Step Temp Atoms Density TotEng PotEng KinEng E_coul E_vdwl E_long Enthalpy Press 
     600     1.000281     5204     0.752687 -15496.217019 -23302.912793  7806.695773   -55.085188 -22973.547453  -274.280152 -7596.240323     1.142623 
Loop time of 2.86693e-06 on 27 procs for 0 steps with 5204 atoms

104.6% CPU use with 27 MPI tasks x no OpenMP threads

MPI task timing breakdown:
Section |  min time  |  avg time  |  max time  |%varavg| %total
---------------------------------------------------------------
Pair    | 0          | 0          | 0          |   0.0 |  0.00
Kspace  | 0          | 0          | 0          |   0.0 |  0.00
Neigh   | 0          | 0          | 0          |   0.0 |  0.00
Comm    | 0          | 0          | 0          |   0.0 |  0.00
Output  | 0          | 0          | 0          |   0.0 |  0.00
Modify  | 0          | 0          | 0          |   0.0 |  0.00
Other   |            | 2.867e-06  |            |       |100.00

Nlocal:        192.741 ave         201 max         183 min
Histogram: 1 2 1 3 3 4 6 5 1 1
Nghost:        1852.74 ave        1889 max        1829 min
Histogram: 1 3 6 6 3 3 1 2 1 1
Neighs:        16541.7 ave       17680 max       15236 min
Histogram: 2 0 1 4 4 4 6 3 2 1

Total # of neighbors = 446626
Ave neighs/atom = 85.823597
Neighbor list builds = 0
Dangerous builds = 0
unfix    eqmd
#chosen_cation deletion_move -2.015439 2.944545 7.925697 # select_molecule
#chosen_anion deletion_move -1.995019 3.370217 6.962853 # select_molecule
# selected_velocity_salt 5032 cation vel 1.462022 -0.293931 1.050035
# selected_velocity_salt 4466 anion vel 1.729565 -0.582697 -0.485428
group widom_test id  5032 4466 # select_molecule
2 atoms in group widom_test
set atom 5032 type 7
Setting atom values ...
  1 settings made for type
set atom 4466 type 8
Setting atom values ...
  1 settings made for type
run 0 post no # done selecting a flying molecule
WARNING: No fixes defined, atoms won't move (../verlet.cpp:55)
PPPM initialization ...
  using 12-bit tables for long-range coulomb (../kspace.cpp:340)
  G vector (1/distance) = 0.7841028
  grid = 32 32 32
  stencil order = 5
  estimated absolute RMS force accuracy = 0.00012099371
  estimated relative force accuracy = 0.00012099371
  using single precision KISS FFT
  3d grid and FFT values/proc = 4913 2048
Per MPI rank memory allocation (min/avg/max) = 5.366 | 5.391 | 5.444 Mbytes
Step Temp Atoms Density TotEng PotEng KinEng E_coul E_vdwl E_long Enthalpy Press 
     600     1.000281     5204     0.752687 -15496.217019 -23302.912793  7806.695773   -55.085188 -22973.547453  -274.280152 -7596.240323     1.142623 
Loop time of 2.57441e-06 on 27 procs for 0 steps with 5204 atoms

group noneq_run_rigid    intersect   all         water               # select_salt no selection
0 atoms in group noneq_run_rigid
group noneq_run_pre      subtract    all         noneq_run_rigid     # select_salt no selection
5204 atoms in group noneq_run_pre
group noneq_run          subtract    noneq_run_pre   widom_test      # select_salt no selection
5202 atoms in group noneq_run
group noneq_run_pre      delete
run 0 post no # mom rev random number
WARNING: No fixes defined, atoms won't move (../verlet.cpp:55)
PPPM initialization ...
  using 12-bit tables for long-range coulomb (../kspace.cpp:340)
  G vector (1/distance) = 0.7841028
  grid = 32 32 32
  stencil order = 5
  estimated absolute RMS force accuracy = 0.00012099371
  estimated relative force accuracy = 0.00012099371
  using single precision KISS FFT
  3d grid and FFT values/proc = 4913 2048
Per MPI rank memory allocation (min/avg/max) = 5.366 | 5.391 | 5.444 Mbytes
Step Temp Atoms Density TotEng PotEng KinEng E_coul E_vdwl E_long Enthalpy Press 
     600     1.000281     5204     0.752687 -15496.217019 -23302.912793  7806.695773   -55.085188 -22973.547453  -274.280152 -7596.240323     1.142623 
Loop time of 2.7327e-06 on 27 procs for 0 steps with 5204 atoms

run 0 post no # momentum reversal applied
WARNING: No fixes defined, atoms won't move (../verlet.cpp:55)
PPPM initialization ...
  using 12-bit tables for long-range coulomb (../kspace.cpp:340)
  G vector (1/distance) = 0.7841028
  grid = 32 32 32
  stencil order = 5
  estimated absolute RMS force accuracy = 0.00012099371
  estimated relative force accuracy = 0.00012099371
  using single precision KISS FFT
  3d grid and FFT values/proc = 4913 2048
Per MPI rank memory allocation (min/avg/max) = 5.366 | 5.391 | 5.444 Mbytes
Step Temp Atoms Density TotEng PotEng KinEng E_coul E_vdwl E_long Enthalpy Press 
     600     1.000281     5204     0.752687 -15496.217019 -23302.912793  7806.695773   -55.085188 -22973.547453  -274.280152 -7596.240323     1.142623 
Loop time of 2.81274e-06 on 27 procs for 0 steps with 5204 atoms

######################################################################
pair_style   lj/cut/coul/long/neq 2.500000 3.500000 600 400 1.000000 5 0 0 1.000000 1.000000 11 1.000000
kspace_style pppm 0.0001

# LJ (neq? True)
# real lj particles
pair_coeff  * *         1.  1.  2.5   # solvent + ions
pair_coeff  4*5 4*5     0   0   2.5   # wall atoms

        
pair_modify  tail no shift yes mix arithmetic # LB mixing rule
neigh_modify delay 2 every 1 check yes page 500000 one 50000
######################################################################
timestep 0.010000
fix  eqmd  noneq_run           nve                 # nve for non-rigid
run 400 # (neq? True) MD run
PPPM initialization ...
  using 12-bit tables for long-range coulomb (../kspace.cpp:340)
  G vector (1/distance) = 0.7841028
  grid = 32 32 32
  stencil order = 5
  estimated absolute RMS force accuracy = 0.00012099371
  estimated relative force accuracy = 0.00012099371
  using single precision KISS FFT
  3d grid and FFT values/proc = 4913 2048
Neighbor list info ...
  update every 1 steps, delay 2 steps, check yes
  max neighbors/atom: 50000, page size: 500000
  master list distance cutoff = 3.8
  ghost atom cutoff = 3.8
  binsize = 1.9, bins = 11 11 11
  1 neighbor lists, perpetual/occasional/extra = 1 0 0
  (1) pair lj/cut/coul/long/neq, perpetual
      attributes: half, newton on
      pair build: half/bin/atomonly/newton
      stencil: half/bin/3d
      bin: standard
Per MPI rank memory allocation (min/avg/max) = 5.366 | 5.391 | 5.444 Mbytes
Step Temp Atoms Density TotEng PotEng KinEng E_coul E_vdwl E_long Enthalpy Press 
     600     1.000281     5204     0.752687 -15496.217019 -23302.912793  7806.695773   -55.085188 -22973.547453  -274.280152 -7596.240323     1.142623 
    1000     1.010021     5204     0.752687 -15501.803839 -23384.511661  7882.707822   -63.593345 -23038.857308  -282.061008 -8237.029830     1.050749 
Loop time of 1.13528 on 27 procs for 400 steps with 5204 atoms

Performance: 304418.122 tau/day, 352.336 timesteps/s
92.4% CPU use with 27 MPI tasks x no OpenMP threads

MPI task timing breakdown:
Section |  min time  |  avg time  |  max time  |%varavg| %total
---------------------------------------------------------------
Pair    | 0.24152    | 0.38745    | 0.43981    |  10.7 | 34.13
Kspace  | 0.53289    | 0.58916    | 0.74153    |   9.1 | 51.90
Neigh   | 0.061103   | 0.086839   | 0.10142    |   4.1 |  7.65
Comm    | 0.056028   | 0.06368    | 0.081967   |   3.3 |  5.61
Output  | 5.6185e-05 | 6.4474e-05 | 8.7298e-05 |   0.0 |  0.01
Modify  | 0.0012951  | 0.0020652  | 0.0025161  |   0.7 |  0.18
Other   |            | 0.006022   |            |       |  0.53

Nlocal:        192.741 ave         208 max         184 min
Histogram: 4 2 7 3 4 2 2 2 0 1
Nghost:        1852.89 ave        1872 max        1829 min
Histogram: 1 1 3 3 0 6 5 5 2 1
Neighs:        16537.0 ave       18171 max       15503 min
Histogram: 1 5 5 5 3 3 3 0 1 1

Total # of neighbors = 446499
Ave neighs/atom = 85.799193
Neighbor list builds = 101
Dangerous builds = 0
unfix    eqmd
run 0 post no # momentum reversal applied
WARNING: No fixes defined, atoms won't move (../verlet.cpp:55)
PPPM initialization ...
  using 12-bit tables for long-range coulomb (../kspace.cpp:340)
  G vector (1/distance) = 0.7841028
  grid = 32 32 32
  stencil order = 5
  estimated absolute RMS force accuracy = 0.00012099371
  estimated relative force accuracy = 0.00012099371
  using single precision KISS FFT
  3d grid and FFT values/proc = 4913 2048
Per MPI rank memory allocation (min/avg/max) = 5.366 | 5.391 | 5.444 Mbytes
Step Temp Atoms Density TotEng PotEng KinEng E_coul E_vdwl E_long Enthalpy Press 
    1000     1.010021     5204     0.752687 -15501.803838 -23384.511660  7882.707822   -63.593345 -23038.857308  -282.061007 -8237.029829     1.050749 
Loop time of 3.09781e-06 on 27 procs for 0 steps with 5204 atoms


group   solvent type 1
5024 atoms in group solvent
group   water   empty
0 atoms in group water
group   ions    type 2 3
180 atoms in group ions
group   wall    type 4 5
0 atoms in group wall
group   flying  type 6 7 8
2 atoms in group flying
group   eq_run  union solvent ions flying
5204 atoms in group eq_run
            
######################################################################
pair_style   lj/cut/coul/long 2.500000 3.500000
kspace_style pppm 0.0001

# LJ (neq? False)
# real lj particles
pair_coeff  * *         1.  1.  2.5   # solvent + ions
pair_coeff  4*5 4*5     0   0   2.5   # wall atoms

        
pair_modify  tail no shift yes mix arithmetic # LB mixing rule
neigh_modify delay 2 every 1 check yes page 500000 one 50000
######################################################################
# dealing with ideal flying particles: force field=simple_lj

# Non-interacting flying lj molecule (trial deletion)
# real lj particles
pair_coeff  * *         1.  1.  2.5   # solvent + ions
pair_coeff  4*5 4*5     0   0   2.5   # wall atoms
# flying particles
pair_coeff  * 6         0   0   2.5   # flying solvent  non-interacting
pair_coeff  * 7         0   0   2.5   # flying cation   non-interacting
pair_coeff  * 8         0   0   2.5   # flying anion    non-interacting

# flying solvetn or ions
set type 6  charge 0.                       # non-interacting
Setting atom values ...
  0 settings made for charge
set type 7  charge 0.                       # non-interacting
Setting atom values ...
  1 settings made for charge
set type 8  charge 0.                       # non-interacting
Setting atom values ...
  1 settings made for charge
        
run 0 post no # making flying moelcule non-interacting
WARNING: No fixes defined, atoms won't move (../verlet.cpp:55)
PPPM initialization ...
  using 12-bit tables for long-range coulomb (../kspace.cpp:340)
  G vector (1/distance) = 0.78405202
  grid = 32 32 32
  stencil order = 5
  estimated absolute RMS force accuracy = 0.00011968087
  estimated relative force accuracy = 0.00011968087
  using single precision KISS FFT
  3d grid and FFT values/proc = 4913 2048
Neighbor list info ...
  update every 1 steps, delay 2 steps, check yes
  max neighbors/atom: 50000, page size: 500000
  master list distance cutoff = 3.8
  ghost atom cutoff = 3.8
  binsize = 1.9, bins = 11 11 11
  1 neighbor lists, perpetual/occasional/extra = 1 0 0
  (1) pair lj/cut/coul/long, perpetual
      attributes: half, newton on
      pair build: half/bin/atomonly/newton
      stencil: half/bin/3d
      bin: standard
Per MPI rank memory allocation (min/avg/max) = 5.366 | 5.391 | 5.444 Mbytes
Step Temp Atoms Density TotEng PotEng KinEng E_coul E_vdwl E_long Enthalpy Press 
    1000     1.010021     5204     0.752687 -15488.264538 -23370.972360  7882.707822   -63.442462 -23029.518224  -278.011674 -8215.752740     1.051869 
Loop time of 2.73259e-06 on 27 procs for 0 steps with 5204 atoms

# done post_propagate after NEMD
# selected salt 5032/4466
#The center of bimodal dist. on a positive side=0.800000
set type 7 type 2
Setting atom values ...
  1 settings made for type
set type 8 type 3
Setting atom values ...
  1 settings made for type
run 0 post no # lj type change (reject_delete)
WARNING: No fixes defined, atoms won't move (../verlet.cpp:55)
PPPM initialization ...
  using 12-bit tables for long-range coulomb (../kspace.cpp:340)
  G vector (1/distance) = 0.78405202
  grid = 32 32 32
  stencil order = 5
  estimated absolute RMS force accuracy = 0.00011968087
  estimated relative force accuracy = 0.00011968087
  using single precision KISS FFT
  3d grid and FFT values/proc = 4913 2048
Per MPI rank memory allocation (min/avg/max) = 5.366 | 5.391 | 5.444 Mbytes
Step Temp Atoms Density TotEng PotEng KinEng E_coul E_vdwl E_long Enthalpy Press 
    1000     1.010021     5204     0.752687 -12826.069298 -20708.777121  7882.707822   -63.442462 -20367.322985  -278.011674  5477.620400     2.647376 
Loop time of 3.21726e-06 on 27 procs for 0 steps with 5204 atoms

set atom 5032 charge 1.000000
Setting atom values ...
  1 settings made for charge
set atom 4466 charge -1.000000
Setting atom values ...
  1 settings made for charge
run 0 post no # charge return (reject_delete)
WARNING: No fixes defined, atoms won't move (../verlet.cpp:55)
PPPM initialization ...
  using 12-bit tables for long-range coulomb (../kspace.cpp:340)
  G vector (1/distance) = 0.7841028
  grid = 32 32 32
  stencil order = 5
  estimated absolute RMS force accuracy = 0.00012099371
  estimated relative force accuracy = 0.00012099371
  using single precision KISS FFT
  3d grid and FFT values/proc = 4913 2048
Per MPI rank memory allocation (min/avg/max) = 5.366 | 5.391 | 5.444 Mbytes
Step Temp Atoms Density TotEng PotEng KinEng E_coul E_vdwl E_long Enthalpy Press 
    1000     1.010021     5204     0.752687 -12831.285458 -20713.993281  7882.707822   -64.609289 -20367.322985  -282.061007  5470.666108     2.647125 
Loop time of 2.90285e-06 on 27 procs for 0 steps with 5204 atoms

run 0 post no # return_position back to old
WARNING: No fixes defined, atoms won't move (../verlet.cpp:55)
PPPM initialization ...
  using 12-bit tables for long-range coulomb (../kspace.cpp:340)
  G vector (1/distance) = 0.7841028
  grid = 32 32 32
  stencil order = 5
  estimated absolute RMS force accuracy = 0.00012099371
  estimated relative force accuracy = 0.00012099371
  using single precision KISS FFT
  3d grid and FFT values/proc = 4913 2048
Per MPI rank memory allocation (min/avg/max) = 5.366 | 5.391 | 5.444 Mbytes
Step Temp Atoms Density TotEng PotEng KinEng E_coul E_vdwl E_long Enthalpy Press 
    1000     1.000281     5204     0.752687 -15496.217019 -23302.912793  7806.695773   -55.085188 -22973.547453  -274.280152 -7596.240323     1.142623 
Loop time of 2.56763e-06 on 27 procs for 0 steps with 5204 atoms

group widom_test         delete
group noneq_run          delete
group noneq_run_rigid    delete
reset_timestep 600

group   solvent delete
group   water   delete
group   ions    delete
group   wall    delete
group   flying  delete
group   eq_run  delete
        
write_data restart_after_MC_2.data pair ij
System init for write_data ...
PPPM initialization ...
  using 12-bit tables for long-range coulomb (../kspace.cpp:340)
  G vector (1/distance) = 0.7841028
  grid = 32 32 32
  stencil order = 5
  estimated absolute RMS force accuracy = 0.00012099371
  estimated relative force accuracy = 0.00012099371
  using single precision KISS FFT
  3d grid and FFT values/proc = 4913 2048
log logfile_hneqMDMC.3
