
group   solvent type 1
5024 atoms in group solvent
group   water   empty
0 atoms in group water
group   ions    type 2 3
180 atoms in group ions
group   wall    type 4 5
0 atoms in group wall
group   flying  type 6 7 8
0 atoms in group flying
group   eq_run  union solvent ions flying
5204 atoms in group eq_run
            
######################################################################
pair_style   lj/cut/coul/long 2.500000 3.500000
kspace_style pppm 0.0001

# LJ (neq? False)
# real lj particles
pair_coeff  * *         1.  1.  2.5   # solvent + ions
pair_coeff  4*5 4*5     0   0   2.5   # wall atoms

        
pair_modify  tail no shift yes mix arithmetic # LB mixing rule
neigh_modify delay 2 every 1 check yes page 500000 one 50000
######################################################################
timestep 0.005000
thermo 2000
fix  eqmd   eq_run nvt temp 1.000000 1.000000 0.500000
run 200 # (neq? False) MD run
PPPM initialization ...
  using 12-bit tables for long-range coulomb (../kspace.cpp:340)
  G vector (1/distance) = 0.7841028
  grid = 32 32 32
  stencil order = 5
  estimated absolute RMS force accuracy = 0.00012099371
  estimated relative force accuracy = 0.00012099371
  using single precision KISS FFT
  3d grid and FFT values/proc = 4913 2048
Per MPI rank memory allocation (min/avg/max) = 5.366 | 5.391 | 5.444 Mbytes
Step Temp Atoms Density TotEng PotEng KinEng E_coul E_vdwl E_long Enthalpy Press 
     800     1.000551     5204     0.752687 -15752.659857 -23561.457496  7808.797639   -68.829096 -23217.989589  -274.638811 -9498.590722     0.904565 
    1000     1.011419     5204     0.752687 -15497.449201 -23391.072033  7893.622832   -60.511991 -23061.035387  -269.524655 -8422.495020     1.023295 
Loop time of 0.531133 on 27 procs for 200 steps with 5204 atoms

Performance: 162671.191 tau/day, 376.554 timesteps/s
92.1% CPU use with 27 MPI tasks x no OpenMP threads

MPI task timing breakdown:
Section |  min time  |  avg time  |  max time  |%varavg| %total
---------------------------------------------------------------
Pair    | 0.11808    | 0.18421    | 0.21189    |   7.2 | 34.68
Kspace  | 0.2623     | 0.2895     | 0.3531     |   5.5 | 54.51
Neigh   | 0.016798   | 0.023574   | 0.02777    |   2.2 |  4.44
Comm    | 0.023557   | 0.027949   | 0.037348   |   2.4 |  5.26
Output  | 5.2426e-05 | 5.4454e-05 | 7.4997e-05 |   0.0 |  0.01
Modify  | 0.0027285  | 0.0039888  | 0.0057488  |   1.3 |  0.75
Other   |            | 0.001853   |            |       |  0.35

Nlocal:        192.741 ave         205 max         182 min
Histogram: 2 4 0 5 2 5 5 3 0 1
Nghost:        1845.07 ave        1877 max        1826 min
Histogram: 5 4 1 6 5 2 0 2 1 1
Neighs:        16534.8 ave       18053 max       15422 min
Histogram: 4 0 5 6 1 2 6 1 1 1

Total # of neighbors = 446440
Ave neighs/atom = 85.787855
Neighbor list builds = 28
Dangerous builds = 0
unfix    eqmd

group   solvent type 1
5024 atoms in group solvent
group   water   empty
0 atoms in group water
group   ions    type 2 3
180 atoms in group ions
group   wall    type 4 5
0 atoms in group wall
group   flying  type 6 7 8
0 atoms in group flying
group   eq_run  union solvent ions flying
5204 atoms in group eq_run
            
######################################################################
pair_style   lj/cut/coul/long 2.500000 3.500000
kspace_style pppm 0.0001

# LJ (neq? False)
# real lj particles
pair_coeff  * *         1.  1.  2.5   # solvent + ions
pair_coeff  4*5 4*5     0   0   2.5   # wall atoms

        
pair_modify  tail no shift yes mix arithmetic # LB mixing rule
neigh_modify delay 2 every 1 check yes page 500000 one 50000
######################################################################
# shake is off; should be a dummy run
timestep 0.005000
thermo 2000
fix  eqmd   eq_run nvt temp 1.000000 1.000000 0.500000
run 0 # (neq? False) MD run
PPPM initialization ...
  using 12-bit tables for long-range coulomb (../kspace.cpp:340)
  G vector (1/distance) = 0.7841028
  grid = 32 32 32
  stencil order = 5
  estimated absolute RMS force accuracy = 0.00012099371
  estimated relative force accuracy = 0.00012099371
  using single precision KISS FFT
  3d grid and FFT values/proc = 4913 2048
Per MPI rank memory allocation (min/avg/max) = 5.366 | 5.391 | 5.444 Mbytes
Step Temp Atoms Density TotEng PotEng KinEng E_coul E_vdwl E_long Enthalpy Press 
    1000     1.011419     5204     0.752687 -15497.449201 -23391.072033  7893.622832   -60.511991 -23061.035387  -269.524655 -8422.495019     1.023295 
Loop time of 3.32037e-06 on 27 procs for 0 steps with 5204 atoms

51.3% CPU use with 27 MPI tasks x no OpenMP threads

MPI task timing breakdown:
Section |  min time  |  avg time  |  max time  |%varavg| %total
---------------------------------------------------------------
Pair    | 0          | 0          | 0          |   0.0 |  0.00
Kspace  | 0          | 0          | 0          |   0.0 |  0.00
Neigh   | 0          | 0          | 0          |   0.0 |  0.00
Comm    | 0          | 0          | 0          |   0.0 |  0.00
Output  | 0          | 0          | 0          |   0.0 |  0.00
Modify  | 0          | 0          | 0          |   0.0 |  0.00
Other   |            | 3.32e-06   |            |       |100.00

Nlocal:        192.741 ave         205 max         182 min
Histogram: 2 3 2 4 3 4 5 2 1 1
Nghost:        1843.59 ave        1879 max        1824 min
Histogram: 5 4 4 4 3 3 1 1 1 1
Neighs:        16534.1 ave       18066 max       15419 min
Histogram: 4 3 1 6 2 4 4 1 0 2

Total # of neighbors = 446422
Ave neighs/atom = 85.784397
Neighbor list builds = 0
Dangerous builds = 0
unfix    eqmd
#chosen_cation deletion_move 8.971157 -8.941340 8.667703 # select_molecule
#chosen_anion deletion_move 8.251744 -8.309726 6.803460 # select_molecule
# selected_velocity_salt 4692 cation vel -0.008115 -0.735140 -1.033172
# selected_velocity_salt 4111 anion vel 0.749311 -0.716587 0.417923
group widom_test id  4692 4111 # select_molecule
2 atoms in group widom_test
set atom 4692 type 7
Setting atom values ...
  1 settings made for type
set atom 4111 type 8
Setting atom values ...
  1 settings made for type
run 0 post no # done selecting a flying molecule
WARNING: No fixes defined, atoms won't move (../verlet.cpp:55)
PPPM initialization ...
  using 12-bit tables for long-range coulomb (../kspace.cpp:340)
  G vector (1/distance) = 0.7841028
  grid = 32 32 32
  stencil order = 5
  estimated absolute RMS force accuracy = 0.00012099371
  estimated relative force accuracy = 0.00012099371
  using single precision KISS FFT
  3d grid and FFT values/proc = 4913 2048
Per MPI rank memory allocation (min/avg/max) = 5.366 | 5.391 | 5.444 Mbytes
Step Temp Atoms Density TotEng PotEng KinEng E_coul E_vdwl E_long Enthalpy Press 
    1000     1.011419     5204     0.752687 -15497.449201 -23391.072033  7893.622832   -60.511991 -23061.035387  -269.524655 -8422.495019     1.023295 
Loop time of 3.0177e-06 on 27 procs for 0 steps with 5204 atoms

group noneq_run_rigid    intersect   all         water               # select_salt no selection
0 atoms in group noneq_run_rigid
group noneq_run_pre      subtract    all         noneq_run_rigid     # select_salt no selection
5204 atoms in group noneq_run_pre
group noneq_run          subtract    noneq_run_pre   widom_test      # select_salt no selection
5202 atoms in group noneq_run
group noneq_run_pre      delete
run 0 post no # mom rev random number
WARNING: No fixes defined, atoms won't move (../verlet.cpp:55)
PPPM initialization ...
  using 12-bit tables for long-range coulomb (../kspace.cpp:340)
  G vector (1/distance) = 0.7841028
  grid = 32 32 32
  stencil order = 5
  estimated absolute RMS force accuracy = 0.00012099371
  estimated relative force accuracy = 0.00012099371
  using single precision KISS FFT
  3d grid and FFT values/proc = 4913 2048
Per MPI rank memory allocation (min/avg/max) = 5.366 | 5.391 | 5.444 Mbytes
Step Temp Atoms Density TotEng PotEng KinEng E_coul E_vdwl E_long Enthalpy Press 
    1000     1.011419     5204     0.752687 -15497.449201 -23391.072033  7893.622832   -60.511991 -23061.035387  -269.524655 -8422.495019     1.023295 
Loop time of 2.86463e-06 on 27 procs for 0 steps with 5204 atoms

######################################################################
pair_style   lj/cut/coul/long/neq 2.500000 3.500000 1000 400 1.000000 5 0 0 1.000000 1.000000 11 1.000000
kspace_style pppm 0.0001

# LJ (neq? True)
# real lj particles
pair_coeff  * *         1.  1.  2.5   # solvent + ions
pair_coeff  4*5 4*5     0   0   2.5   # wall atoms

        
pair_modify  tail no shift yes mix arithmetic # LB mixing rule
neigh_modify delay 2 every 1 check yes page 500000 one 50000
######################################################################
timestep 0.010000
fix  eqmd  noneq_run           nve                 # nve for non-rigid
run 400 # (neq? True) MD run
PPPM initialization ...
  using 12-bit tables for long-range coulomb (../kspace.cpp:340)
  G vector (1/distance) = 0.7841028
  grid = 32 32 32
  stencil order = 5
  estimated absolute RMS force accuracy = 0.00012099371
  estimated relative force accuracy = 0.00012099371
  using single precision KISS FFT
  3d grid and FFT values/proc = 4913 2048
Neighbor list info ...
  update every 1 steps, delay 2 steps, check yes
  max neighbors/atom: 50000, page size: 500000
  master list distance cutoff = 3.8
  ghost atom cutoff = 3.8
  binsize = 1.9, bins = 11 11 11
  1 neighbor lists, perpetual/occasional/extra = 1 0 0
  (1) pair lj/cut/coul/long/neq, perpetual
      attributes: half, newton on
      pair build: half/bin/atomonly/newton
      stencil: half/bin/3d
      bin: standard
Per MPI rank memory allocation (min/avg/max) = 5.366 | 5.391 | 5.444 Mbytes
Step Temp Atoms Density TotEng PotEng KinEng E_coul E_vdwl E_long Enthalpy Press 
    1000     1.011419     5204     0.752687 -15497.449201 -23391.072033  7893.622832   -60.511991 -23061.035387  -269.524655 -8422.495019     1.023295 
    1400     1.020350     5204     0.752687 -15503.209659 -23466.530706  7963.321047   -53.842160 -23143.089937  -269.598608 -8541.714005     1.006884 
Loop time of 1.13523 on 27 procs for 400 steps with 5204 atoms

Performance: 304431.686 tau/day, 352.351 timesteps/s
92.0% CPU use with 27 MPI tasks x no OpenMP threads

MPI task timing breakdown:
Section |  min time  |  avg time  |  max time  |%varavg| %total
---------------------------------------------------------------
Pair    | 0.24661    | 0.38751    | 0.44575    |  10.5 | 34.13
Kspace  | 0.52211    | 0.58997    | 0.73494    |   9.0 | 51.97
Neigh   | 0.060661   | 0.087377   | 0.10151    |   4.2 |  7.70
Comm    | 0.054872   | 0.062497   | 0.081897   |   3.4 |  5.51
Output  | 5.5097e-05 | 6.1742e-05 | 7.9874e-05 |   0.0 |  0.01
Modify  | 0.0014093  | 0.0020965  | 0.0026537  |   0.7 |  0.18
Other   |            | 0.005722   |            |       |  0.50

Nlocal:        192.741 ave         201 max         181 min
Histogram: 2 0 1 2 4 3 3 6 1 5
Nghost:        1858.41 ave        1887 max        1834 min
Histogram: 1 1 5 5 5 3 4 0 1 2
Neighs:        16548.2 ave       17891 max       14595 min
Histogram: 1 0 3 2 3 2 7 5 2 2

Total # of neighbors = 446801
Ave neighs/atom = 85.857225
Neighbor list builds = 102
Dangerous builds = 0
unfix    eqmd

group   solvent type 1
5024 atoms in group solvent
group   water   empty
0 atoms in group water
group   ions    type 2 3
180 atoms in group ions
group   wall    type 4 5
0 atoms in group wall
group   flying  type 6 7 8
2 atoms in group flying
group   eq_run  union solvent ions flying
5204 atoms in group eq_run
            
######################################################################
pair_style   lj/cut/coul/long 2.500000 3.500000
kspace_style pppm 0.0001

# LJ (neq? False)
# real lj particles
pair_coeff  * *         1.  1.  2.5   # solvent + ions
pair_coeff  4*5 4*5     0   0   2.5   # wall atoms

        
pair_modify  tail no shift yes mix arithmetic # LB mixing rule
neigh_modify delay 2 every 1 check yes page 500000 one 50000
######################################################################
# dealing with ideal flying particles: force field=simple_lj

# Non-interacting flying lj molecule (trial deletion)
# real lj particles
pair_coeff  * *         1.  1.  2.5   # solvent + ions
pair_coeff  4*5 4*5     0   0   2.5   # wall atoms
# flying particles
pair_coeff  * 6         0   0   2.5   # flying solvent  non-interacting
pair_coeff  * 7         0   0   2.5   # flying cation   non-interacting
pair_coeff  * 8         0   0   2.5   # flying anion    non-interacting

# flying solvetn or ions
set type 6  charge 0.                       # non-interacting
Setting atom values ...
  0 settings made for charge
set type 7  charge 0.                       # non-interacting
Setting atom values ...
  1 settings made for charge
set type 8  charge 0.                       # non-interacting
Setting atom values ...
  1 settings made for charge
        
run 0 post no # making flying moelcule non-interacting
WARNING: No fixes defined, atoms won't move (../verlet.cpp:55)
PPPM initialization ...
  using 12-bit tables for long-range coulomb (../kspace.cpp:340)
  G vector (1/distance) = 0.78405202
  grid = 32 32 32
  stencil order = 5
  estimated absolute RMS force accuracy = 0.00011968087
  estimated relative force accuracy = 0.00011968087
  using single precision KISS FFT
  3d grid and FFT values/proc = 4913 2048
Neighbor list info ...
  update every 1 steps, delay 2 steps, check yes
  max neighbors/atom: 50000, page size: 500000
  master list distance cutoff = 3.8
  ghost atom cutoff = 3.8
  binsize = 1.9, bins = 11 11 11
  1 neighbor lists, perpetual/occasional/extra = 1 0 0
  (1) pair lj/cut/coul/long, perpetual
      attributes: half, newton on
      pair build: half/bin/atomonly/newton
      stencil: half/bin/3d
      bin: standard
Per MPI rank memory allocation (min/avg/max) = 5.366 | 5.391 | 5.444 Mbytes
Step Temp Atoms Density TotEng PotEng KinEng E_coul E_vdwl E_long Enthalpy Press 
    1400     1.020350     5204     0.752687 -15491.208869 -23454.529915  7963.321047   -53.825872 -23133.394663  -267.309380 -8519.204883     1.008404 
Loop time of 2.58719e-06 on 27 procs for 0 steps with 5204 atoms

# done post_propagate after NEMD
# selected salt 4692/4111
#The center of bimodal dist. on a positive side=0.800000
delete_atoms group widom_test # lj compress no # lj bond yes mol yes
Deleted 2 atoms, new total = 5202
run 0 post no # accept deleting flying lj molecule
WARNING: No fixes defined, atoms won't move (../verlet.cpp:55)
PPPM initialization ...
  using 12-bit tables for long-range coulomb (../kspace.cpp:340)
  G vector (1/distance) = 0.78405292
  grid = 32 32 32
  stencil order = 5
  estimated absolute RMS force accuracy = 0.00011970331
  estimated relative force accuracy = 0.00011970331
  using single precision KISS FFT
  3d grid and FFT values/proc = 4913 2048
Per MPI rank memory allocation (min/avg/max) = 5.366 | 5.391 | 5.444 Mbytes
Step Temp Atoms Density TotEng PotEng KinEng E_coul E_vdwl E_long Enthalpy Press 
    1400     1.020559     5202     0.752398 -15492.637651 -23454.529915  7961.892264   -53.825733 -23133.394663  -267.309519 -8521.586187     1.008266 
Loop time of 2.73204e-06 on 27 procs for 0 steps with 5202 atoms

reset_atom_ids sort yes # id numbering
Resetting atom IDs ...
PPPM initialization ...
  using 12-bit tables for long-range coulomb (../kspace.cpp:340)
  G vector (1/distance) = 0.78405292
  grid = 32 32 32
  stencil order = 5
  estimated absolute RMS force accuracy = 0.00011970331
  estimated relative force accuracy = 0.00011970331
  using single precision KISS FFT
  3d grid and FFT values/proc = 4913 2048
run 0 post no # just for ids re-setting
WARNING: No fixes defined, atoms won't move (../verlet.cpp:55)
PPPM initialization ...
  using 12-bit tables for long-range coulomb (../kspace.cpp:340)
  G vector (1/distance) = 0.78405292
  grid = 32 32 32
  stencil order = 5
  estimated absolute RMS force accuracy = 0.00011970331
  estimated relative force accuracy = 0.00011970331
  using single precision KISS FFT
  3d grid and FFT values/proc = 4913 2048
Per MPI rank memory allocation (min/avg/max) = 5.366 | 5.391 | 5.444 Mbytes
Step Temp Atoms Density TotEng PotEng KinEng E_coul E_vdwl E_long Enthalpy Press 
    1400     1.020559     5202     0.752398 -15492.637651 -23454.529915  7961.892264   -53.825733 -23133.394663  -267.309519 -8521.586187     1.008266 
Loop time of 2.5913e-06 on 27 procs for 0 steps with 5202 atoms

WARNING: lammps_gather_atoms: unknown property name (../library.cpp:2111)
# updating atom list by mol_id 0
# this is a pure atomic-system atom_id (0)
# done updating numbering after accepted exchange
group widom_test         delete
group noneq_run          delete
group noneq_run_rigid    delete
reset_timestep 1000

group   solvent delete
group   water   delete
group   ions    delete
group   wall    delete
group   flying  delete
group   eq_run  delete
        
write_data restart_after_MC_4.data pair ij
System init for write_data ...
PPPM initialization ...
  using 12-bit tables for long-range coulomb (../kspace.cpp:340)
  G vector (1/distance) = 0.78405292
  grid = 32 32 32
  stencil order = 5
  estimated absolute RMS force accuracy = 0.00011970331
  estimated relative force accuracy = 0.00011970331
  using single precision KISS FFT
  3d grid and FFT values/proc = 4913 2048
log logfile_hneqMDMC.5
