
group   solvent type 1
5024 atoms in group solvent
group   water   empty
0 atoms in group water
group   ions    type 2 3
178 atoms in group ions
group   wall    type 4 5
0 atoms in group wall
group   flying  type 6 7 8
0 atoms in group flying
group   eq_run  union solvent ions flying
5202 atoms in group eq_run
            
######################################################################
pair_style   lj/cut/coul/long 2.500000 3.500000
kspace_style pppm 0.0001

# LJ (neq? False)
# real lj particles
pair_coeff  * *         1.  1.  2.5   # solvent + ions
pair_coeff  4*5 4*5     0   0   2.5   # wall atoms

        
pair_modify  tail no shift yes mix arithmetic # LB mixing rule
neigh_modify delay 2 every 1 check yes page 500000 one 50000
######################################################################
timestep 0.005000
thermo 2000
fix  eqmd   eq_run nvt temp 1.000000 1.000000 0.500000
run 200 # (neq? False) MD run
PPPM initialization ...
  using 12-bit tables for long-range coulomb (../kspace.cpp:340)
  G vector (1/distance) = 0.78405292
  grid = 32 32 32
  stencil order = 5
  estimated absolute RMS force accuracy = 0.00011970331
  estimated relative force accuracy = 0.00011970331
  using single precision KISS FFT
  3d grid and FFT values/proc = 4913 2048
Per MPI rank memory allocation (min/avg/max) = 5.366 | 5.391 | 5.444 Mbytes
Step Temp Atoms Density TotEng PotEng KinEng E_coul E_vdwl E_long Enthalpy Press 
    1400     1.011532     5202     0.752398 -15490.065256 -23381.535033  7891.469776   -59.085357 -23052.722225  -269.727450 -8093.398209     1.069826 
    1600     0.983183     5202     0.752398 -15735.054997 -23405.358146  7670.303148   -55.048454 -23079.719023  -270.590669 -8587.182618     1.033841 
Loop time of 0.528697 on 27 procs for 200 steps with 5202 atoms

Performance: 163420.514 tau/day, 378.288 timesteps/s
91.6% CPU use with 27 MPI tasks x no OpenMP threads

MPI task timing breakdown:
Section |  min time  |  avg time  |  max time  |%varavg| %total
---------------------------------------------------------------
Pair    | 0.10826    | 0.18446    | 0.21357    |   7.6 | 34.89
Kspace  | 0.25948    | 0.2881     | 0.36175    |   5.9 | 54.49
Neigh   | 0.014913   | 0.022733   | 0.026138   |   2.2 |  4.30
Comm    | 0.023848   | 0.027668   | 0.03741    |   2.5 |  5.23
Output  | 5.2743e-05 | 5.4844e-05 | 7.5176e-05 |   0.0 |  0.01
Modify  | 0.0026483  | 0.0038402  | 0.0052685  |   1.2 |  0.73
Other   |            | 0.001845   |            |       |  0.35

Nlocal:        192.667 ave         209 max         183 min
Histogram: 1 4 7 7 2 1 2 0 2 1
Nghost:        1856.74 ave        1879 max        1830 min
Histogram: 1 1 0 4 7 4 2 4 3 1
Neighs:        16524.7 ave       18699 max       15042 min
Histogram: 3 2 2 7 6 4 1 0 0 2

Total # of neighbors = 446168
Ave neighs/atom = 85.768551
Neighbor list builds = 27
Dangerous builds = 0
unfix    eqmd

group   solvent type 1
5024 atoms in group solvent
group   water   empty
0 atoms in group water
group   ions    type 2 3
178 atoms in group ions
group   wall    type 4 5
0 atoms in group wall
group   flying  type 6 7 8
0 atoms in group flying
group   eq_run  union solvent ions flying
5202 atoms in group eq_run
            
######################################################################
pair_style   lj/cut/coul/long 2.500000 3.500000
kspace_style pppm 0.0001

# LJ (neq? False)
# real lj particles
pair_coeff  * *         1.  1.  2.5   # solvent + ions
pair_coeff  4*5 4*5     0   0   2.5   # wall atoms

        
pair_modify  tail no shift yes mix arithmetic # LB mixing rule
neigh_modify delay 2 every 1 check yes page 500000 one 50000
######################################################################
# shake is off; should be a dummy run
timestep 0.005000
thermo 2000
fix  eqmd   eq_run nvt temp 1.000000 1.000000 0.500000
run 0 # (neq? False) MD run
PPPM initialization ...
  using 12-bit tables for long-range coulomb (../kspace.cpp:340)
  G vector (1/distance) = 0.78405292
  grid = 32 32 32
  stencil order = 5
  estimated absolute RMS force accuracy = 0.00011970331
  estimated relative force accuracy = 0.00011970331
  using single precision KISS FFT
  3d grid and FFT values/proc = 4913 2048
Per MPI rank memory allocation (min/avg/max) = 5.366 | 5.391 | 5.444 Mbytes
Step Temp Atoms Density TotEng PotEng KinEng E_coul E_vdwl E_long Enthalpy Press 
    1600     0.983183     5202     0.752398 -15735.054998 -23405.358146  7670.303148   -55.048454 -23079.719023  -270.590669 -8587.182618     1.033841 
Loop time of 3.06826e-06 on 27 procs for 0 steps with 5202 atoms

118.3% CPU use with 27 MPI tasks x no OpenMP threads

MPI task timing breakdown:
Section |  min time  |  avg time  |  max time  |%varavg| %total
---------------------------------------------------------------
Pair    | 0          | 0          | 0          |   0.0 |  0.00
Kspace  | 0          | 0          | 0          |   0.0 |  0.00
Neigh   | 0          | 0          | 0          |   0.0 |  0.00
Comm    | 0          | 0          | 0          |   0.0 |  0.00
Output  | 0          | 0          | 0          |   0.0 |  0.00
Modify  | 0          | 0          | 0          |   0.0 |  0.00
Other   |            | 3.068e-06  |            |       |100.00

Nlocal:        192.667 ave         208 max         183 min
Histogram: 1 3 6 7 4 1 2 1 0 2
Nghost:        1857.19 ave        1877 max        1831 min
Histogram: 1 0 2 4 5 2 3 5 4 1
Neighs:        16522.3 ave       18754 max       15086 min
Histogram: 3 2 4 6 6 4 0 0 0 2

Total # of neighbors = 446101
Ave neighs/atom = 85.755671
Neighbor list builds = 0
Dangerous builds = 0
unfix    eqmd
#The center (0.800000) and alpha (5.000000) of bimodal biasing function
create_atoms 7 single -0.401015 -6.473786 -0.367635
Created 1 atoms
  using lattice units in orthogonal box = (-9.5252781 -9.5252781 -9.5252781) to (9.5252781 9.5252781 9.5252781)
  create_atoms CPU = 0.000 seconds
create_atoms 8 single 0.718877 -7.158645 -1.610578
Created 1 atoms
  using lattice units in orthogonal box = (-9.5252781 -9.5252781 -9.5252781) to (9.5252781 9.5252781 9.5252781)
  create_atoms CPU = 0.000 seconds
set atom 5204 image 0 0 0
Setting atom values ...
  1 settings made for image
group   widom_test  type    7 8 # insert salt-pair
2 atoms in group widom_test
run 0 post no # temp=1.000000 unit_lj?=True velocity generated
WARNING: No fixes defined, atoms won't move (../verlet.cpp:55)
PPPM initialization ...
  using 12-bit tables for long-range coulomb (../kspace.cpp:340)
  G vector (1/distance) = 0.78405202
  grid = 32 32 32
  stencil order = 5
  estimated absolute RMS force accuracy = 0.00011968087
  estimated relative force accuracy = 0.00011968087
  using single precision KISS FFT
  3d grid and FFT values/proc = 4913 2048
Per MPI rank memory allocation (min/avg/max) = 5.366 | 5.391 | 5.444 Mbytes
Step Temp Atoms Density TotEng PotEng KinEng E_coul E_vdwl E_long Enthalpy Press 
    1600     0.982904     5204     0.752687 562103404.507064 562095733.435181  7671.071883   -55.048597 562096059.074305  -270.590526 2810682892.810832 325226.010512 
Loop time of 2.93122e-06 on 27 procs for 0 steps with 5204 atoms

run 0 post no # temp=1.000000 unit_lj?=True velocity generated
WARNING: No fixes defined, atoms won't move (../verlet.cpp:55)
PPPM initialization ...
  using 12-bit tables for long-range coulomb (../kspace.cpp:340)
  G vector (1/distance) = 0.78405202
  grid = 32 32 32
  stencil order = 5
  estimated absolute RMS force accuracy = 0.00011968087
  estimated relative force accuracy = 0.00011968087
  using single precision KISS FFT
  3d grid and FFT values/proc = 4913 2048
Per MPI rank memory allocation (min/avg/max) = 5.366 | 5.391 | 5.444 Mbytes
Step Temp Atoms Density TotEng PotEng KinEng E_coul E_vdwl E_long Enthalpy Press 
    1600     0.982961     5204     0.752687 562103404.955298 562095733.435181  7671.520117   -55.048597 562096059.074305  -270.590526 2810682893.557889 325226.010555 
Loop time of 2.97126e-06 on 27 procs for 0 steps with 5204 atoms

# generated_velocity_salt 5203 cation vel -0.771340 0.182095 -0.953596
# generated_velocity_salt 5204 anion vel 0.481988 0.775595 -0.250216
set type 7 charge 1.000000
Setting atom values ...
  1 settings made for charge
set type 8 charge -1.000000
Setting atom values ...
  1 settings made for charge
run 0 post no # insert flying molecule
WARNING: No fixes defined, atoms won't move (../verlet.cpp:55)
PPPM initialization ...
  using 12-bit tables for long-range coulomb (../kspace.cpp:340)
  G vector (1/distance) = 0.7841028
  grid = 32 32 32
  stencil order = 5
  estimated absolute RMS force accuracy = 0.00012099371
  estimated relative force accuracy = 0.00012099371
  using single precision KISS FFT
  3d grid and FFT values/proc = 4913 2048
Per MPI rank memory allocation (min/avg/max) = 5.366 | 5.391 | 5.444 Mbytes
Step Temp Atoms Density TotEng PotEng KinEng E_coul E_vdwl E_long Enthalpy Press 
    1600     0.982961     5204     0.752687 562103402.279325 562095730.759208  7671.520117   -55.165048 562096059.074305  -273.150048 2810682889.989634 325226.010426 
Loop time of 2.70263e-06 on 27 procs for 0 steps with 5204 atoms

group noneq_run_rigid    intersect   all         water               # select_salt no selection
0 atoms in group noneq_run_rigid
group noneq_run_pre      subtract    all         noneq_run_rigid     # select_salt no selection
5204 atoms in group noneq_run_pre
group noneq_run          subtract    noneq_run_pre   widom_test      # select_salt no selection
5202 atoms in group noneq_run
group noneq_run_pre      delete
run 0 post no # mom rev random number
WARNING: No fixes defined, atoms won't move (../verlet.cpp:55)
PPPM initialization ...
  using 12-bit tables for long-range coulomb (../kspace.cpp:340)
  G vector (1/distance) = 0.7841028
  grid = 32 32 32
  stencil order = 5
  estimated absolute RMS force accuracy = 0.00012099371
  estimated relative force accuracy = 0.00012099371
  using single precision KISS FFT
  3d grid and FFT values/proc = 4913 2048
Per MPI rank memory allocation (min/avg/max) = 5.366 | 5.391 | 5.444 Mbytes
Step Temp Atoms Density TotEng PotEng KinEng E_coul E_vdwl E_long Enthalpy Press 
    1600     0.982961     5204     0.752687 562103402.279325 562095730.759208  7671.520117   -55.165048 562096059.074305  -273.150048 2810682889.989634 325226.010426 
Loop time of 2.94448e-06 on 27 procs for 0 steps with 5204 atoms

######################################################################
pair_style   lj/cut/coul/long/neq 2.500000 3.500000 1600 400 1.000000 5 1 0 1.000000 1.000000 11 1.000000
kspace_style pppm 0.0001

# LJ (neq? True)
# real lj particles
pair_coeff  * *         1.  1.  2.5   # solvent + ions
pair_coeff  4*5 4*5     0   0   2.5   # wall atoms

        
pair_modify  tail no shift yes mix arithmetic # LB mixing rule
neigh_modify delay 2 every 1 check yes page 500000 one 50000
######################################################################
timestep 0.010000
fix  eqmd  noneq_run           nve                 # nve for non-rigid
run 400 # (neq? True) MD run
PPPM initialization ...
  using 12-bit tables for long-range coulomb (../kspace.cpp:340)
  G vector (1/distance) = 0.7841028
  grid = 32 32 32
  stencil order = 5
  estimated absolute RMS force accuracy = 0.00012099371
  estimated relative force accuracy = 0.00012099371
  using single precision KISS FFT
  3d grid and FFT values/proc = 4913 2048
Neighbor list info ...
  update every 1 steps, delay 2 steps, check yes
  max neighbors/atom: 50000, page size: 500000
  master list distance cutoff = 3.8
  ghost atom cutoff = 3.8
  binsize = 1.9, bins = 11 11 11
  1 neighbor lists, perpetual/occasional/extra = 1 0 0
  (1) pair lj/cut/coul/long/neq, perpetual
      attributes: half, newton on
      pair build: half/bin/atomonly/newton
      stencil: half/bin/3d
      bin: standard
Per MPI rank memory allocation (min/avg/max) = 5.366 | 5.391 | 5.444 Mbytes
Step Temp Atoms Density TotEng PotEng KinEng E_coul E_vdwl E_long Enthalpy Press 
    1600     0.982961     5204     0.752687 -15744.946692 -23416.466808  7671.520117   -55.057426 -23088.259334  -273.150048 -8605.841263     1.032573 
    2000     0.994070     5204     0.752687 -15736.564029 -23494.782339  7758.218310   -59.255344 -23158.804270  -276.722724 -9053.116430     0.966669 
Loop time of 1.12671 on 27 procs for 400 steps with 5204 atoms

Performance: 306732.580 tau/day, 355.015 timesteps/s
92.2% CPU use with 27 MPI tasks x no OpenMP threads

MPI task timing breakdown:
Section |  min time  |  avg time  |  max time  |%varavg| %total
---------------------------------------------------------------
Pair    | 0.23812    | 0.38721    | 0.43964    |  10.7 | 34.37
Kspace  | 0.52434    | 0.58123    | 0.73967    |   9.2 | 51.59
Neigh   | 0.060876   | 0.08762    | 0.10174    |   4.2 |  7.78
Comm    | 0.054859   | 0.062592   | 0.081625   |   3.3 |  5.56
Output  | 5.5275e-05 | 6.226e-05  | 8.5611e-05 |   0.0 |  0.01
Modify  | 0.0013018  | 0.0020784  | 0.0025383  |   0.8 |  0.18
Other   |            | 0.005929   |            |       |  0.53

Nlocal:        192.741 ave         202 max         182 min
Histogram: 2 1 1 3 4 4 4 2 3 3
Nghost:        1856.74 ave        1877 max        1840 min
Histogram: 3 4 1 0 5 5 5 3 0 1
Neighs:        16546.0 ave       17727 max       15220 min
Histogram: 2 0 5 1 6 2 3 3 3 2

Total # of neighbors = 446743
Ave neighs/atom = 85.846080
Neighbor list builds = 102
Dangerous builds = 0
unfix    eqmd

group   solvent type 1
5024 atoms in group solvent
group   water   empty
0 atoms in group water
group   ions    type 2 3
178 atoms in group ions
group   wall    type 4 5
0 atoms in group wall
group   flying  type 6 7 8
2 atoms in group flying
group   eq_run  union solvent ions flying
5204 atoms in group eq_run
            
######################################################################
pair_style   lj/cut/coul/long 2.500000 3.500000
kspace_style pppm 0.0001

# LJ (neq? False)
# real lj particles
pair_coeff  * *         1.  1.  2.5   # solvent + ions
pair_coeff  4*5 4*5     0   0   2.5   # wall atoms

        
pair_modify  tail no shift yes mix arithmetic # LB mixing rule
neigh_modify delay 2 every 1 check yes page 500000 one 50000
######################################################################
run 0 post no # update forcefield; return to Eq
WARNING: No fixes defined, atoms won't move (../verlet.cpp:55)
PPPM initialization ...
  using 12-bit tables for long-range coulomb (../kspace.cpp:340)
  G vector (1/distance) = 0.7841028
  grid = 32 32 32
  stencil order = 5
  estimated absolute RMS force accuracy = 0.00012099371
  estimated relative force accuracy = 0.00012099371
  using single precision KISS FFT
  3d grid and FFT values/proc = 4913 2048
Neighbor list info ...
  update every 1 steps, delay 2 steps, check yes
  max neighbors/atom: 50000, page size: 500000
  master list distance cutoff = 3.8
  ghost atom cutoff = 3.8
  binsize = 1.9, bins = 11 11 11
  1 neighbor lists, perpetual/occasional/extra = 1 0 0
  (1) pair lj/cut/coul/long, perpetual
      attributes: half, newton on
      pair build: half/bin/atomonly/newton
      stencil: half/bin/3d
      bin: standard
Per MPI rank memory allocation (min/avg/max) = 5.366 | 5.391 | 5.444 Mbytes
Step Temp Atoms Density TotEng PotEng KinEng E_coul E_vdwl E_long Enthalpy Press 
    2000     0.994070     5204     0.752687 -15736.564029 -23494.782339  7758.218310   -59.255344 -23158.804270  -276.722724 -9053.116430     0.966669 
Loop time of 2.45589e-06 on 27 procs for 0 steps with 5204 atoms

# done post_propagate after NEMD
# selected salt 5203/5204
#The center of bimodal dist. on a positive side=0.800000
delete_atoms group widom_test compress no # lj bond yes mol yes # reject_insert
Deleted 2 atoms, new total = 5202
run 0 post no # delete trial-inserted flying molecule
WARNING: No fixes defined, atoms won't move (../verlet.cpp:55)
PPPM initialization ...
  using 12-bit tables for long-range coulomb (../kspace.cpp:340)
  G vector (1/distance) = 0.78405292
  grid = 32 32 32
  stencil order = 5
  estimated absolute RMS force accuracy = 0.00011970331
  estimated relative force accuracy = 0.00011970331
  using single precision KISS FFT
  3d grid and FFT values/proc = 4913 2048
Per MPI rank memory allocation (min/avg/max) = 5.366 | 5.391 | 5.444 Mbytes
Step Temp Atoms Density TotEng PotEng KinEng E_coul E_vdwl E_long Enthalpy Press 
    2000     0.994296     5202     0.752398 -15719.728841 -23476.730182  7757.001342   -59.143639 -23143.444030  -274.142513 -9046.879715     0.965136 
Loop time of 2.86581e-06 on 27 procs for 0 steps with 5202 atoms

run 0 post no # return_position back to old
WARNING: No fixes defined, atoms won't move (../verlet.cpp:55)
PPPM initialization ...
  using 12-bit tables for long-range coulomb (../kspace.cpp:340)
  G vector (1/distance) = 0.78405292
  grid = 32 32 32
  stencil order = 5
  estimated absolute RMS force accuracy = 0.00011970331
  estimated relative force accuracy = 0.00011970331
  using single precision KISS FFT
  3d grid and FFT values/proc = 4913 2048
Per MPI rank memory allocation (min/avg/max) = 5.366 | 5.391 | 5.444 Mbytes
Step Temp Atoms Density TotEng PotEng KinEng E_coul E_vdwl E_long Enthalpy Press 
    2000     0.983183     5202     0.752398 -15735.054998 -23405.358146  7670.303148   -55.048454 -23079.719023  -270.590669 -8587.182618     1.033841 
Loop time of 2.71144e-06 on 27 procs for 0 steps with 5202 atoms

group widom_test         delete
group noneq_run          delete
group noneq_run_rigid    delete
reset_timestep 1600

group   solvent delete
group   water   delete
group   ions    delete
group   wall    delete
group   flying  delete
group   eq_run  delete
        
write_data restart_after_MC_7.data pair ij
System init for write_data ...
PPPM initialization ...
  using 12-bit tables for long-range coulomb (../kspace.cpp:340)
  G vector (1/distance) = 0.78405292
  grid = 32 32 32
  stencil order = 5
  estimated absolute RMS force accuracy = 0.00011970331
  estimated relative force accuracy = 0.00011970331
  using single precision KISS FFT
  3d grid and FFT values/proc = 4913 2048
log logfile_hneqMDMC.8
