LAMMPS data file via write_data, version 28 Oct 2021, timestep = 2000

5202 atoms
8 atom types

-9.525278051358015 9.525278051358015 xlo xhi
-9.525278051358015 9.525278051358015 ylo yhi
-9.525278051358015 9.525278051358015 zlo zhi

Masses

1 1
2 1
3 1
4 1
5 1
6 1
7 1
8 1

PairIJ Coeffs # lj/cut/coul/long

1 1 1 1 2.5
1 2 1 1 2.5
1 3 1 1 2.5
1 4 1 1 2.5
1 5 1 1 2.5
1 6 1 1 2.5
1 7 1 1 2.5
1 8 1 1 2.5
2 2 1 1 2.5
2 3 1 1 2.5
2 4 1 1 2.5
2 5 1 1 2.5
2 6 1 1 2.5
2 7 1 1 2.5
2 8 1 1 2.5
3 3 1 1 2.5
3 4 1 1 2.5
3 5 1 1 2.5
3 6 1 1 2.5
3 7 1 1 2.5
3 8 1 1 2.5
4 4 0 0 2.5
4 5 0 0 2.5
4 6 1 1 2.5
4 7 1 1 2.5
4 8 1 1 2.5
5 5 0 0 2.5
5 6 1 1 2.5
5 7 1 1 2.5
5 8 1 1 2.5
6 6 1 1 2.5
6 7 1 1 2.5
6 8 1 1 2.5
7 7 1 1 2.5
7 8 1 1 2.5
8 8 1 1 2.5

Atoms # charge

1 1 0 -8.15746929930684 -8.054669042787074 -9.223867099420561 4 6 -2
66 1 0 -8.148507771281468 -8.548687188495057 -8.276267286970011 19 -23 -31
645 1 0 -8.698026092162639 -7.912429736064847 -7.5852306301643955 0 -8 -35
57 1 0 -9.289967530237789 -8.405145878771325 -8.772418209124211 14 -10 -25
515 1 0 -8.991347847545645 -9.394817963746803 -8.770359417432584 17 -3 -16
6 1 0 -6.671318441936379 -8.738678721100781 -9.514079539651595 13 -87 -63
523 1 0 -5.785976340579134 -8.693033509163163 -8.440640023438046 14 -7 -19
8 1 0 -7.102179406704354 -8.671550279373186 -8.378128705219472 22 -9 -22
4628 1 0 -7.026102476028525 -7.8737395051290395 -9.068589814495125 -98 -79 -46
7 1 0 -5.526677168486909 -8.605528365386334 -7.446064271529759 15 -75 -69
11 1 0 -6.350083338384265 -7.826996507555025 -8.22291781806789 7 -8 -44
1095 1 0 -6.551538589140432 -9.127091872970022 -7.475671832701186 16 -8 -21
4632 1 0 -5.87300889817384 -7.849437227273513 -9.257189905983243 1 3 -4
1101 1 0 -4.609872048595873 -9.017682572278868 -8.207666377637205 10 -36 -34
84 1 0 -3.232882143517 -7.446137910914766 -8.187335194165323 9 -18 -40
593 1 0 -4.42856408276376 -7.9389636301404645 -7.95004927534522 12 -36 -34
15 1 0 -3.57086771209492 -8.545934823802243 -8.383513845010043 34 -57 -57
153 2 1 -4.124183697069989 -7.577917475656099 -8.966220721969647 24 -6 -28
64 1 0 -8.21936507457134 -6.423503189817871 -8.85625853545438 -15 -81 -69
644 1 0 -9.010397124113085 -6.804078079699428 -7.560272301103064 1 4 -1
60 1 0 -9.287491709691833 -5.477638051602793 -7.85414772566054 20 -6 -13
3 1 0 -9.368118003330828 -5.812181050718208 -8.887254864363525 4 1 -6
69 1 0 -7.478920825454798 -6.000962275350029 -8.385775787650829 14 -11 -23
61 1 0 -8.731567858633426 -7.285301902199714 -8.661521508127759 -9 -15 -37
649 1 0 -7.8170447510286385 -7.210537999381237 -7.98549090883479 12 -1 -7
63 1 0 -8.224220008909136 -5.508905031812014 -9.318923705020554 -17 -21 -26
70 1 0 -8.34936100571812 -5.976821530224805 -7.637432934655803 11 -5 -29
65 1 0 -7.7595366457583745 -6.991318535069256 -9.50896351275567 13 1 -8
72 1 0 -6.0841301838434525 -6.710652352377963 -9.191825002816659 18 -13 -28
9 1 0 -7.184672996805071 -6.9673757331317026 -8.67689730352509 15 -7 -35
657 1 0 -6.2208873093426735 -6.146956690430271 -8.126810493218382 -13 -20 -50
68 1 0 -6.507402498546287 -5.696214017439552 -8.968294565935926 10 -2 -8
75 1 0 -7.17940280608616 -6.460079948472866 -7.57286534029036 -3 -17 -30
67 1 0 -7.371931659711902 -6.122307590118722 -9.431131949652933 1 -11 -38
4759 1 0 -5.522515284793474 -5.7027031096857845 -9.44702223006604 5 -15 -28
74 1 0 -5.282746247827374 -7.252213173517329 -8.129952238396337 -19 -13 -32
17 1 0 -5.098084674821754 -7.121569902053158 -9.183184494594297 0 -15 -28
78 1 0 -4.209545186567209 -6.811071817431778 -8.332440287093783 0 4 -1
77 1 0 -4.514959140321994 -5.720135072023239 -8.910119866173618 4 3 -3
71 1 0 -5.290462249493234 -6.308270488780888 -8.54713288082551 8 -1 -14
656 1 0 -5.109360478985164 -6.338639629501493 -7.469899625660559 18 -67 -81
81 1 0 -3.6691532528198083 -6.001770899263383 -8.319557940018031 -98 -69 -40
79 1 0 -4.4595936438867545 -5.508435585078766 -7.7977729686563615 8 -4 -9
82 1 0 -3.3087938076371533 -6.828520465148808 -8.990030985990629 -110 -47 -45
131 1 0 -9.396269511134381 -4.626988850870255 -8.816090904453565 -2 -32 -46
137 1 0 -8.501658252761535 -4.053068999080932 -8.408263964183629 4 5 0
134 1 0 -9.057295109557344 -3.205688461882499 -7.476335530370324 11 -20 -42
709 1 0 -8.04316327327277 -3.4105361503946034 -7.551404794700487 -1 2 -2
139 1 0 -8.283733307667974 -4.954768786701116 -8.079232565237623 21 -13 -33
187 1 0 -9.20038899131143 -3.6769814308085773 -9.316834870409833 3 3 2
4758 1 0 -7.432934025979179 -4.077777318388214 -9.52012292109009 14 -9 -12
4753 1 0 -8.202422813569926 -3.364283426353188 -9.275068210597098 18 -28 -37
143 1 0 -6.323909688919074 -4.473968406517453 -8.235190946676786 15 -3 -11
141 1 0 -5.493389541886657 -3.776963226239831 -8.077380106686991 -8 -30 -48
720 1 0 -6.456872582168575 -5.236594111251244 -7.428160672503082 -7 -40 -60
718 1 0 -7.2677260222127495 -3.8533162113677237 -8.180454415793355 -1 2 0
151 1 0 -5.653878297750195 -5.286123275503973 -8.440274236562372 3 5 -6
140 1 0 -7.4062187751585515 -5.015358732466839 -8.769572241493027 -16 -24 -31
719 1 0 -6.350494480513738 -3.5842277492377757 -8.851261936965493 16 -11 -23
195 1 0 -5.341258626308324 -4.424411498828213 -9.001743705508739 -12 -15 -36
154 1 0 -3.812896381111713 -5.016149220328762 -8.633654197893257 -1 8 -2
150 1 0 -4.580539951833738 -4.463832491698924 -8.378950783844347 -26 -24 -37
212 1 0 -3.344558525772445 -4.3620370938154265 -7.779789172979644 7 -6 -8
157 1 0 -3.9783527301907835 -3.413841496252525 -8.349646640707622 0 5 -5
200 1 0 -5.0843722024840075 -3.2757440480117275 -8.995921493773778 -10 -13 -33
146 1 0 -4.097689106336833 -4.235246884080044 -9.468115673924691 16 -4 -14
580 1 0 -8.301436295943367 -8.370598782026333 -6.778855074061979 14 -20 -47
1094 1 0 -7.76300383397157 -9.392966898047499 -7.062733529623098 -14 -18 -49
1671 1 0 -8.633097892793945 -8.973720557343523 -5.305758860141105 -2 -74 -56
582 1 0 -8.731826252298577 -8.013322766272609 -5.835263427230035 6 -15 -26
584 1 0 -8.511767468280247 -9.51008889799587 -6.13176857636065 1 4 2
586 1 0 -5.88703860294612 -8.744154303300169 -6.480036727252795 23 -10 -28
650 1 0 -6.334533208271147 -7.538619005110359 -7.183212761598769 3 1 -1
583 1 0 -6.8564484283125635 -9.228994122587878 -6.323819288565104 2 1 -2
1674 1 0 -7.377811643273557 -9.312685994460681 -5.416877986701188 12 -37 -41
654 1 0 -7.165032590199219 -8.295544782268832 -6.807958483477388 13 -15 -39
1684 2 1 -6.155805708934176 -8.788784141161281 -5.346911330745434 0 0 0
1801 1 0 -6.508604078512268 -7.618375200990229 -5.906780300804831 18 -8 -18
1166 1 0 -5.395352755429227 -8.083118293364754 -5.677436504267496 -94 -73 -45
1679 1 0 -4.190781229141183 -9.081560567462107 -6.05181903504291 -14 -16 -23
590 1 0 -3.786510966981672 -7.9533093131641905 -6.400915298921344 -10 -19 -47
595 1 0 -5.144072872001917 -8.995630576826759 -5.7813271117573555 12 -7 -15
19 1 0 -3.7342073369308 -7.528292440441469 -7.263181706044752 -15 -15 -26
592 1 0 -3.9115635783514175 -8.810110119686684 -7.3597427146500625 16 -6 -20
588 1 0 -4.751292100927741 -9.508889320139573 -7.054972120676723 21 -9 -18
13 1 0 -4.6030860866589824 -8.398141081977936 -6.788382927584562 25 -55 -64
591 1 0 -4.463601218099607 -7.420994420690619 -5.756143525303292 12 -7 -13
664 1 0 -3.5404520277266553 -7.532932500247033 -5.429388422122024 22 -6 -27
642 1 0 -8.832076580010478 -7.383573644565319 -6.599499672794594 19 -20 -35
585 1 0 -7.897287676113567 -6.75754412827155 -6.7684140470585765 17 0 -17
1152 1 0 -8.855828783411692 -7.06491486113841 -5.552432948947942 -16 -20 -34
1272 1 0 -7.800511968047434 -6.299880205918153 -5.878416649812107 17 -9 -21
1271 1 0 -8.649755176850293 -5.824182744883218 -5.491425510013777 25 -8 -16
643 1 0 -8.902117293822368 -6.28339381352157 -6.66929723908705 17 -29 -39
1156 1 0 -7.718314999882078 -7.365929689967517 -5.852264474636235 -5 -21 -39
698 1 0 -9.524820167419882 -5.70758114876321 -6.055968877395123 1 4 -1
1223 1 0 -6.089649266090836 -6.525978828623064 -7.1009459201703 19 -7 -41
646 1 0 -7.029048799162077 -5.5589214328890435 -5.720466958490866 16 -15 -36
651 1 0 -6.83568769941078 -6.812683579804964 -6.41968173456796 -4 -16 -38
716 1 0 -6.261449659848423 -5.674093554811295 -6.485843081931697 20 -19 -38
653 1 0 -7.244400912610323 -5.685548775222389 -6.707591530349577 5 5 -8
655 1 0 -5.861173519317851 -6.842246969077337 -5.952265275088306 2 7 -3
1287 1 0 -6.154199082784443 -5.932532715747877 -5.451426258086217 -88 -81 -52
76 1 0 -5.139338668113684 -7.3703665345571405 -7.0593156598483935 -3 -8 -48
661 1 0 -4.082010870660385 -6.39250716905381 -7.289011628569643 1 5 -3
659 1 0 -4.754113945803297 -6.560355999332902 -6.432145540718366 10 -29 -35
662 1 0 -3.6070726988408084 -6.977671057712136 -6.330382873753287 17 -8 -21
723 1 0 -5.010598268349965 -5.537148704672559 -5.6794709319119425 -17 -16 -36
660 1 0 -4.0632019541226185 -6.313042353405923 -5.565974954968863 -6 -39 -48
658 1 0 -3.2858787076699842 -5.969803191418481 -6.683890873329373 2 2 -1
722 1 0 -4.887209564397688 -5.501959859489432 -6.800048181305035 -1 -28 -26
712 1 0 -8.654424125202512 -4.294073309878955 -7.046988578140082 1 5 2
73 1 0 -7.679852321905397 -4.760125257290815 -7.0699852737385305 -8 -5 -45
138 1 0 -8.889679506217751 -5.2067184972053955 -6.780157893818353 0 4 -3
710 1 0 -7.874902201064787 -4.283599010359291 -6.003937329490877 -13 -19 -45
766 1 0 -8.10873293173388 -5.239804460199249 -5.997605398050438 0 -16 -39
707 1 0 -9.332998080579227 -4.199004903095724 -5.994038382991816 9 1 -10
1289 1 0 -5.564192607915258 -3.958625298928194 -5.9525002312348505 0 5 -1
714 1 0 -6.808742260655617 -4.795470925759271 -6.58214816742553 -7 -32 -33
1277 1 0 -6.63529755096918 -3.44121846295633 -5.746600862649039 -80 -40 -32
717 1 0 -5.930725759142379 -5.016418843739239 -5.790463852635792 13 -35 -38
147 1 0 -5.665463562991288 -4.539013224552495 -6.774156286098097 0 6 -2
715 1 0 -6.329977076386097 -3.6718104343324725 -7.27453924264875 12 -90 -83
193 1 0 -7.1254060013933636 -3.816876553331649 -6.695517172877113 12 -2 -9
647 1 0 -6.95906983709908 -4.418995611007955 -5.478468695076014 12 -1 -10
1295 1 0 -4.5409175867034115 -3.277362680209443 -5.847853515980643 2 2 1
1351 1 0 -4.838929062897658 -4.67304324331138 -6.151544411601656 -9 -2 -40
721 1 0 -4.043423094458097 -5.269371510077516 -5.942095750601604 -14 -39 -28
152 1 0 -3.866078953941262 -4.249324716158195 -6.122865037636536 24 -12 -15
792 1 0 -5.165540546542808 -3.6563173834953644 -6.978109927156292 2 1 -8
273 1 0 -4.017008490141722 -3.583533313006359 -7.0665091448446535 -10 -36 -36
148 1 0 -3.9918123862583537 -5.082287847771365 -7.036782544553983 12 -3 -11
1670 1 0 -9.291306773194933 -9.008514051331067 -3.6080223238904408 5 5 -4
1151 1 0 -8.776169172755568 -7.928558199679943 -4.778500320431339 15 -32 -34
587 1 0 -7.467208438531014 -8.402032675826934 -5.033115519913254 15 -12 -39
1740 1 0 -7.688409996776031 -7.543292524901824 -3.427516473063185 -9 -11 -44
1154 1 0 -9.17793047669298 -8.03305115933655 -3.5961326696332416 18 -9 -30
2257 1 0 -8.17362451643985 -8.591643420890987 -3.6723808741584163 17 0 -15
1221 1 0 -5.587450755100668 -8.840537647510747 -4.262672269133254 17 -10 -25
1218 1 0 -6.6986790808698515 -7.946117258448987 -3.4394242416918757 14 -4 -20
1673 1 0 -7.277353460619352 -9.234770970089196 -4.290910552718955 3 4 -3
1805 1 0 -5.592315323895199 -7.4774399203914035 -3.4667131611609943 16 -77 -50
1159 1 0 -6.593877481703835 -8.567116466784842 -4.416682198846979 11 -2 -12
1220 1 0 -6.066729223429005 -7.67244113011136 -4.6728138233671 17 -14 -32
1214 1 0 -7.158709747943241 -7.509772951899873 -4.508832896196406 8 0 -11
1224 1 0 -4.970123228502846 -7.814637195727644 -4.767361777533764 15 -11 -30
1165 1 0 -4.207104527391013 -8.476928766544141 -5.229615649078255 -12 -25 -45
1160 1 0 -4.383862305867731 -9.023597120279536 -4.092373909223739 3 1 -4
1689 1 0 -3.268169829246915 -8.6642755553467 -4.045536536207535 19 -11 -30
1748 1 0 -4.805001548793864 -8.115425657229261 -3.71737308096355 9 -2 -9
1814 1 0 -3.8894262612739547 -7.889377114503415 -4.1663224614984395 15 -82 -68
1225 1 0 -3.9909654257444833 -8.632993006638747 -3.188920503704237 6 1 -7
1212 2 1 -8.103000361607636 -6.730852018245546 -4.975595403717772 2 0 -1
1857 1 0 -8.911884890726826 -7.031521870825187 -3.716520899565615 -104 -79 -47
1149 3 -1 -7.650880105144034 -5.7619380076173545 -4.862687614085398 9 -3 -11
1217 1 0 -5.5802683325053275 -5.602383323445769 -4.532815268925406 -4 -18 -30
1275 1 0 -7.298621500978228 -5.566808328947767 -3.626514969406798 5 -17 -35
648 1 0 -7.014596120537216 -6.724981008766986 -5.239255703668865 16 1 -14
1216 1 0 -7.372718361104715 -6.478643822266162 -3.947956026539868 14 -16 -33
1215 1 0 -6.324879445914807 -6.69217231469166 -4.05582940241819 -28 -85 -41
1227 1 0 -4.282858322802428 -6.0447355491890615 -4.535970163527199 5 -36 -28
1236 1 0 -3.1812249167096787 -6.571643046519293 -4.771393373732003 3 4 -3
1230 1 0 -4.2642942571056 -7.109642045095721 -4.804796749094019 0 -27 -35
1233 1 0 -3.364502203104944 -6.645146080476702 -3.751175183218443 17 -7 -13
1219 1 0 -4.976000847431675 -5.93573864187216 -3.5782892995355526 20 -67 -75
652 1 0 -5.2160554958564225 -6.566185539620918 -5.185726293547838 -80 -96 -68
1285 1 0 -4.6727980566402065 -6.942401856866205 -3.7446292392084364 7 0 -9
1294 1 0 -3.906124080862648 -5.353532089651573 -3.6200411240563435 1 -2 -7
1279 1 0 -7.70768649904712 -4.690659390436464 -4.676037180198565 -86 -84 -42
1278 2 1 -8.062064208096546 -4.530677151895784 -3.7660306419171308 2 2 -1
1924 1 0 -8.417597662141791 -3.588840197188222 -3.3944589279915975 7 -29 -24
638 1 0 -9.467760708481784 -4.798461407183617 -5.084542273727224 15 -5 -27
1335 1 0 -8.824447038877693 -3.303083973661207 -4.276442610183694 1 0 -5
1337 1 0 -8.701650365784822 -5.268279731853695 -4.516695975658296 10 -1 -24
1994 1 0 -7.732529719431284 -3.673320979041322 -4.865600902315274 10 -28 -32
1286 1 0 -6.069761775080114 -4.068469033331445 -5.076655346045206 5 3 -3
1281 1 0 -6.878869567578984 -4.453659283725127 -3.7944963637725126 4 0 -7
1282 1 0 -5.730873571354943 -4.32935758133604 -4.015106950027939 20 -37 -34
1283 1 0 -6.7483006184758745 -3.2994845378324755 -4.569454663126711 0 0 -4
1213 1 0 -6.503578129956501 -5.192407775169468 -4.673492214196302 -3 -13 -40
1284 1 0 -5.134199864937413 -4.564931788973506 -4.9960316347030265 -115 -50 -76
1288 1 0 -3.653793632710045 -4.422387208503223 -4.193983822316522 -3 -22 -29
1344 1 0 -5.222340035200446 -3.4735010676464344 -4.832131371562159 0 6 -4
1231 1 0 -3.2063315843114637 -5.223358889427861 -4.687816911002964 -40 -103 -27
1292 1 0 -4.260575551357132 -3.7054403733926327 -4.854543932015925 14 -7 -13
1226 1 0 -4.757485815794399 -4.955737414286909 -4.13807941862161 -2 8 1
1296 1 0 -3.3912096266144385 -3.2333359022717953 -3.4037665079787818 23 -13 -33
1228 1 0 -4.190827101503696 -4.967395899181439 -4.979415087588664 15 -9 -34
1738 1 0 -8.791234276735567 -8.472044100887373 -2.7114549624748334 13 -27 -36
1735 1 0 -9.457295806059959 -8.582563075380905 -1.7144952450475597 11 1 -11
1741 1 0 -7.48493338682816 -8.115295318858827 -1.3689140892490028 27 -8 -22
2324 1 0 -9.185686611240115 -7.5115769548702715 -1.442002491293234 14 0 -12
1158 1 0 -7.566221616361588 -8.294403488204965 -2.5037124358520355 -9 -17 -37
1677 1 0 -6.480293542529988 -9.266477224832528 -2.1284271685019776 -118 -38 -58
1161 1 0 -5.928634503225434 -7.992587324864501 -2.473200787527403 8 -55 -52
1743 1 0 -5.550962273929469 -8.90047197455699 -1.9073087473631276 -113 -33 -67
1162 1 0 -5.315989188321215 -8.825918907965326 -3.0037842759783535 3 2 -9
1739 1 0 -7.139195251355911 -9.133231148551896 -1.1088121620147375 8 7 0
1746 1 0 -6.360272452085056 -8.34775133723966 -1.0818222673938689 3 3 -54
2399 1 0 -5.423168862182516 -7.90847228676276 -1.1115174703151276 17 -36 -38
1811 1 0 -4.731334055814324 -7.6393640690921245 -2.660100324750092 10 -4 -22
1164 1 0 -3.98122702748229 -9.122033353062156 -2.286127626093825 -9 0 -35
1808 1 0 -4.4554348207087795 -8.452737810462853 -1.739835627722042 2 2 2
1754 1 0 -3.456990970805084 -7.767476556844402 -2.3109254916791064 -7 -37 -31
1809 1 0 -3.4405758639755097 -8.353416536192793 -1.4580574996301503 0 6 1
1793 1 0 -8.01877682833129 -7.0419957817827195 -1.1185413686366936 1 6 -2
1153 1 0 -8.63546830628178 -7.371425171629513 -2.818677754192414 14 -13 -26
1800 1 0 -7.90918209625883 -5.952124878427159 -1.32513298354761 -93 -53 -48
2327 1 0 -7.809295913961229 -7.117696778496249 -2.0404722823353727 -94 -98 -34
2388 1 0 -8.875547016348946 -6.337467292751494 -2.266479079871819 12 -10 -31
1794 1 0 -8.089122920858502 -6.540834825494723 -3.0524829646357436 -91 -36 -16
1861 1 0 -8.982071199697387 -5.557055897024063 -3.134492183430926 -2 -21 -22
1797 1 0 -6.463149684019846 -7.10367514151656 -2.855210775720029 6 1 -10
2387 1 0 -7.254923998701417 -6.0071896217942 -2.4748529283292826 2 6 -3
1802 1 0 -6.872489401338921 -6.3301431939450765 -1.4825149281111438 8 -11 -38
2394 1 0 -5.742271483262643 -5.649784079804175 -2.461947998630151 5 -95 -64
1795 1 0 -6.472667840568459 -5.328362393976712 -1.6535593850306554 15 -16 -47
1222 1 0 -6.467400699370138 -6.0843545102566585 -3.06645186226586 3 5 -1
1803 1 0 -6.594163555800059 -7.357663209118939 -1.7928814694001298 -2 -21 -40
2458 1 0 -5.648250807600369 -5.7507680908565 -1.1452266617067268 -10 -68 -63
1806 1 0 -5.1263477619105196 -6.414842749722369 -2.6462915387316666 8 -3 -10
1807 1 0 -5.140557276806083 -6.637914947493884 -1.6618224526974434 -91 -69 -46
2406 1 0 -4.141400108991806 -7.367955827521588 -1.5995372817729296 -7 -42 -52
1875 1 0 -3.9357568450419294 -6.366502255168595 -1.8652088081421956 6 1 -6
1812 1 0 -3.58438800950774 -6.754744569701866 -2.738219601694855 3 -10 -30
1871 1 0 -4.460668574357364 -6.011823048586999 -1.07686091875401 2 -25 -30
1869 1 0 -4.6995438427162295 -5.320195422437479 -1.8856448353281576 10 -11 -33
1298 1 0 -3.477916364141116 -5.649739131582595 -2.5176870277631855 14 -19 -44
2392 1 0 -8.846858437035129 -5.134620934632126 -1.8904693730180346 5 7 -2
2449 1 0 -8.986230296532083 -3.904194021891278 -1.7724979092398934 19 -9 -19
2389 1 0 -8.167841921956239 -4.2913084471482845 -1.233750476037521 19 -10 -28
1470 1 0 -8.737080169808502 -3.175448067543571 -2.4484959293785447 11 -17 -35
1925 1 0 -8.864965910035082 -4.327437841754747 -2.835409367078688 12 -10 -21
1929 1 0 -7.971831419322475 -4.247786059295349 -2.167613523768214 4 -20 -31
2391 1 0 -7.548846066925913 -5.006084975557867 -1.5603698553307692 26 -22 -40
1927 1 0 -7.9256345738901235 -5.179538711919591 -2.55184945185902 -4 -27 -45
1865 1 0 -5.800971968240318 -4.516910025814527 -2.995669641675103 18 -14 -31
1923 1 0 -7.157157186264975 -3.8804140474103312 -1.4951473855899 2 5 -7
1867 1 0 -6.16107855000437 -3.916326415464355 -1.8241000466544433 15 -11 -22
1799 1 0 -5.658944651715917 -4.801886680343354 -1.346498860884135 -5 -13 -47
1870 1 0 -5.422812485404709 -3.5884737625565393 -2.4597450615193606 -8 -21 -23
1863 1 0 -6.780118477202297 -4.086481221153379 -2.695023789877913 16 -17 -28
1921 1 0 -6.70227334454006 -5.153246166074773 -2.7189895117370613 3 -12 -35
2456 1 0 -5.172544460587717 -3.684346090038944 -1.46265726880237 -4 -10 -33
1943 1 0 -4.015253994890405 -3.379643980252234 -1.827486708743935 -24 -68 -56
1936 1 0 -4.646160590946872 -4.157930918195176 -3.1705459289650673 16 -54 -60
1877 1 0 -3.9578794908667643 -5.1176056973604105 -1.2789506920811808 -10 -30 -43
1879 1 0 -3.353649869548094 -3.616612120564402 -1.0878357526244944 1 2 -1
1874 1 0 -4.714608664329185 -4.31877951330866 -2.238341061335657 -13 -32 -38
1293 1 0 -3.7572996158411067 -4.150142249908756 -2.647143123550948 15 -12 -21
1937 1 0 -4.817014585932543 -5.189565472577831 -2.9342273658335185 17 -3 -11
1796 1 0 -8.462878712407061 -8.832497002559474 -1.0079179250806252 16 -9 -21
1734 1 0 -8.01154446068961 -9.374708118093618 -0.2623938710389565 -14 -15 -37
2319 1 0 -8.562081273076906 -8.647392157003205 0.21763630760721672 13 -13 -43
2322 1 0 -8.668749927755677 -7.825020069208804 -0.5522256221000192 20 -48 -58
1737 1 0 -9.393405818044544 -8.749188551393054 -0.5230931430769321 18 -23 -36
2383 1 0 -7.668502572644415 -8.424310833217474 -0.19027933012117593 -11 -14 -36
2328 1 0 -5.960293904181331 -8.85773669970472 -0.18943787369951492 12 -7 -15
1747 1 0 -6.729728597422747 -8.155798338865901 0.07064439031383521 -3 -22 -27
2400 1 0 -6.060962459307899 -7.417352838765063 0.43915795449616685 -14 -36 -33
2888 1 0 -5.715554260243883 -8.426366078762724 0.6523670472333082 4 6 -8
2320 1 0 -7.378446094093252 -8.54728271699834 0.8615007648856788 11 -3 -14
1744 1 0 -6.906098172900642 -7.546648824361236 -0.7369036619260275 -7 -17 -30
2886 1 0 -7.238789110767572 -7.514051547015654 0.9628419648662998 -12 0 -21
2325 1 0 -6.5066911220836365 -9.18347504818391 0.9614896055925821 -1 1 -7
2830 1 0 -5.578927972440331 -9.368538927368679 0.9177753124156187 -3 -83 -76
2330 1 0 -4.7048490873539635 -8.834541321600357 0.18889214266337861 6 -23 -30
1813 1 0 -3.9131171073553097 -8.96824916558389 -0.5402921948725118 -25 -73 -49
1745 1 0 -5.11334720076726 -9.287614488138388 -0.7292639868451212 8 -25 -31
2335 1 0 -3.2382718456556074 -8.533040171481389 0.1637084241912826 16 -21 -41
2329 1 0 -4.881512678218173 -7.61847532007509 0.18637258431834464 23 -32 -33
2336 1 0 -3.7600591473027456 -7.582232486313559 0.06476615843345664 16 -37 -32
2332 1 0 -4.308243970805678 -8.081669312600939 -0.6802029677945176 8 -3 -7
2385 1 0 -9.165377390328745 -5.942378364621462 -0.9956329767535705 1 -24 -49
2446 1 0 -7.932599179345285 -7.296263435626477 0.18341729689689917 -8 -22 -40
2957 1 0 -7.953992573661903 -6.405816321324649 0.7693973018813366 6 -22 -44
2958 3 -1 -7.585343839558682 -5.5833007052250005 0.0384353165969834 7 1 -3
2390 1 0 -9.030263810899374 -6.422453515972924 0.037890648638794044 0 2 -4
2397 1 0 -6.744730619725619 -6.328180259829592 0.30120130556706615 -63 -96 -28
2396 1 0 -5.76994997040151 -6.720934053093262 -0.6487353221836708 10 -4 -36
2891 1 0 -7.232203927639647 -6.600707760728473 -0.5122200673082289 19 -8 -21
2401 1 0 -5.539806236777156 -5.949783679812109 0.028187314011311485 13 -2 -16
2967 1 0 -5.865275610174263 -6.520561393520975 1.0478502917562769 3 -1 -4
1804 1 0 -6.479972298176754 -5.644149076899013 -0.5495900319576021 -14 -14 -42
2969 1 0 -4.743613857472982 -6.368472259716198 0.8047139584862425 0 0 -6
2964 1 0 -5.206190328780854 -5.522192517292701 0.9938320352180101 5 6 -8
2403 1 0 -3.3608263276101242 -5.554530225597646 0.8320678033753823 -109 -54 -28
2411 1 0 -3.4594484641698764 -7.04239806017825 -0.8396593794609107 8 -6 -8
2404 1 0 -4.626816579467567 -7.039714851080582 -0.668934481920998 -10 -26 -27
2410 1 0 -3.4963817648032753 -6.865678380068548 1.0283080196199754 4 0 -2
2407 1 0 -3.3404818554114986 -5.561359267534874 -0.4680091985328726 -85 -41 -45
2465 1 0 -4.400114142846056 -5.698200857011866 0.13702073712772475 13 0 -11
2340 1 0 -3.5625985473462176 -6.391087564040535 0.12506382306055094 0 3 -1
3071 1 0 -9.467631170712616 -3.95257581630988 0.2727425619378999 4 2 0
2512 1 0 -9.090657678536074 -3.4445412897275975 -0.5470931629918258 16 -82 -63
2510 1 0 -9.350820145469173 -4.516083264987553 -0.5863397970002712 5 -10 -48
2384 1 0 -8.450732891793912 -5.161940822379163 -0.6504117981082622 1 9 -7
2509 1 0 -8.84436765026025 -5.218412038959195 0.71930435530368 7 -8 -21
3072 1 0 -8.732011399753015 -4.023294070100168 1.0147668371775633 -10 -25 -39
2447 1 0 -8.444024993864835 -4.22754674934385 -0.16075994660407533 1 5 -7
2453 1 0 -7.704240521610452 -3.304894267694955 0.901219020529835 -115 -49 -25
2452 1 0 -7.490097196827365 -3.9330964070950847 -0.41872297304317857 -96 -40 -46
2953 1 0 -7.884500510064598 -4.769497054621347 0.47715808450736913 2 2 -4
1931 1 0 -6.419773956821256 -3.520104953491033 -0.7801328412114538 20 -15 -20
1866 1 0 -6.728545111632583 -4.6512647676190815 -0.8743443310761383 0 0 1
2454 1 0 -6.823087633889116 -4.158056479072869 0.46386549937059524 19 -7 -18
2461 1 0 -5.58581172350205 -4.178273453867584 -0.5162734310888382 -2 -15 -42
2398 1 0 -6.778458804090281 -5.200210875844051 0.7826365846772155 -1 -18 -39
2393 1 0 -6.207298579655341 -4.879633323945492 0.039884339497896236 12 -55 -71
2524 1 0 -5.6347642119441765 -4.036592575801893 0.4958813156132264 5 2 -1
2459 1 0 -4.073165090617099 -3.8464360057990445 1.046088193509599 -108 -79 -34
2466 1 0 -3.244514546910662 -4.34209559312889 0.7882403795236129 3 -10 -43
2528 1 0 -4.640837222720051 -3.932533289401428 0.187154784421091 22 -15 -34
2462 1 0 -3.448525648133164 -3.429368679110551 0.04006525386196709 21 -24 -32
2534 1 0 -3.9896636381559323 -4.678975205335842 -0.17410234048133136 -127 -68 -56
2455 1 0 -4.310652640325919 -4.877224867621209 0.7946977752298086 2 2 -1
1810 1 0 -4.741081388629452 -4.673319122665763 -0.9724929711113904 15 -7 -27
2464 1 0 -4.375118080273601 -3.586313768601641 -0.8101755126711883 24 -8 -34
2529 1 0 -5.1115785972992045 -3.2024050131124633 -0.25093067331592034 16 -3 -18
2526 1 0 -5.132697762328038 -4.845106686550989 0.13004004529144442 -3 -32 -30
2881 1 0 -7.594045626121877 -8.238339470779897 1.7938353475087054 -17 -31 -35
2317 1 0 -9.386116579004936 -8.87547951848074 1.190101498026644 0 3 3
3405 1 0 -8.259154571483947 -9.08972020974565 2.5248910229249546 11 -16 -37
2948 1 0 -9.095646474701862 -8.812446839740758 2.963490857811996 15 -12 -23
2947 1 0 -8.323176661645055 -8.976063607287053 1.2625478383187811 1 3 0
3006 1 0 -9.171859190074656 -8.044436479569681 1.7551031740654006 -3 -9 -54
3408 1 0 -7.4910317375806095 -9.40743936155623 1.7422843188997093 2 7 -8
3403 1 0 -8.317211884108541 -8.09279105332555 2.5739087661275675 -126 -74 -51
2893 1 0 -5.674314153872284 -7.628144874371137 1.3378516565406646 -6 -92 -61
2887 1 0 -6.743711104539522 -8.690260025258064 2.191002965615178 -11 -7 -40
2890 1 0 -5.754030663889979 -8.89752012967921 1.949938212819824 7 -2 -12
2889 1 0 -6.635524440686609 -7.485833082174098 2.5173839426961293 -4 -40 -46
2896 1 0 -5.645691371470409 -7.84518556104257 2.418087834497131 -19 -28 -37
2326 1 0 -6.570440608745173 -8.262556468182492 1.3263079687709944 4 4 0
3409 1 0 -6.112695490264421 -9.215626384316657 2.879697305614283 8 -2 -37
2894 1 0 -4.451551888232914 -9.363068509567054 1.3199188730645053 3 3 -5
2895 1 0 -4.8501343129240535 -8.066437893630662 1.6894182699741878 1 -13 -25
2331 1 0 -4.017098511852557 -7.877934869280403 1.0836833689653156 -4 -10 -39
2902 1 0 -3.3599468182964385 -8.732921343141474 1.5396684037085724 4 7 -5
2892 1 0 -4.439116118137718 -8.945531775262793 2.2208798731855866 -15 -15 -20
2905 1 0 -4.205678202520889 -7.858722836405051 2.555627868947461 1 2 -3
3069 1 0 -9.501377596918381 -5.355593566853555 2.1550851431825535 5 1 -5
2951 1 0 -8.775913815284257 -7.114258796360356 2.1747977205213256 0 4 -10
3007 1 0 -9.231277622430678 -6.463296319994953 2.941641390412207 14 -30 -29
2885 1 0 -7.560843261062771 -7.14295338002488 2.1545764886224847 -6 -6 -41
2956 1 0 -8.525031412879567 -5.890618737209197 2.375066801668614 20 -8 -46
2884 3 -1 -8.766082772522303 -6.252457891678745 1.3407637414560396 2 2 -3
2952 1 0 -8.2093292641778 -6.8329886192793055 3.106595348984785 10 1 -6
2959 1 0 -7.5922914431362125 -6.18474711952671 2.654832613485546 16 -8 -17
2954 1 0 -6.808664491475253 -6.74575455039893 1.6341738377957737 -48 -90 -29
3545 1 0 -6.52613890829528 -6.266856573043769 2.732559710860927 19 -19 -42
2962 1 0 -5.712708719696427 -5.372827967709877 2.11570135804672 4 7 -8
2395 1 0 -7.235763509869859 -5.701719788881307 1.7024031675045532 -11 -29 -47
3547 1 0 -5.751676281299151 -6.818063659661888 2.1561981441301175 6 5 -1
2334 1 0 -3.820772951132784 -7.047642394894336 2.062731902850535 4 4 1
2972 1 0 -4.006240613535241 -6.002973103126894 1.5662260162828927 -1 3 -6
2963 1 0 -4.89403393773845 -6.038244386669893 2.1048490899406254 9 -4 -6
2897 1 0 -4.7849182410770075 -7.046278236709001 1.8496981234974195 2 -3 -47
2898 1 0 -4.762837291896261 -7.006336236651465 2.8368150781815573 2 4 0
3555 1 0 -3.773524089972697 -6.049139136279957 2.5741931358973145 -22 -24 -38
2571 1 0 -9.43750678776898 -3.290809548266491 1.5900142263956325 1 4 -2
3132 1 0 -8.84183416884662 -3.3903507202681427 2.5122175092488748 -42 -97 -24
3608 1 0 -7.904380944938807 -5.131005134440943 2.716976599078816 1 2 -9
3010 1 0 -8.990747116363726 -4.223366125100426 2.00245785030272 -2 -14 -28
2955 2 1 -8.325497250263545 -4.957932375024548 1.6746875843151376 3 6 -3
3610 1 0 -7.9248853737564104 -4.001349229617783 2.4563641947080135 17 -6 -17
2960 1 0 -5.935869047696714 -5.046458681754448 3.0607938799901304 -11 -10 -41
3016 1 0 -5.752436776144487 -4.197712622940643 2.1784953870562727 -118 -57 -72
3014 1 0 -6.587369545828283 -3.5275234124063224 2.168945365187413 3 1 -11
3011 1 0 -7.2842534582876866 -4.215454649781259 1.3104861139792106 1 4 -4
3015 1 0 -6.857197710243974 -4.537106000519884 2.5077236100564826 8 0 -14
3019 1 0 -5.910527163846635 -4.88083027560068 1.2177733315346668 10 -15 -29
3018 1 0 -4.188116680050529 -4.111613479714814 2.1804185589948113 -5 -31 -29
3020 1 0 -4.800651385573459 -3.3938231322121712 1.8945467656651636 8 -13 -37
3028 1 0 -3.4353893211518516 -4.965464083225604 1.6613964148117084 16 -34 -32
2966 1 0 -4.611822035933204 -5.232001029993476 1.724125977804576 3 -1 -37
2457 1 0 -4.961271962110786 -4.226693165859463 1.4278216213398247 13 -95 -80
3021 1 0 -5.007107530237666 -4.870156731784052 2.6137642243132455 4 3 -5
3622 1 0 -3.6491730660490127 -4.955995150062827 2.733089708314256 9 1 -6
3022 1 0 -3.574208474068369 -3.968340786011776 3.159138389138707 -32 -75 -67
3476 1 0 -8.14077707530086 -8.5800349064371 3.5531426508717985 3 4 -11
3992 1 0 -7.4933331339609115 -9.352554294111997 4.128697252308371 22 -11 -24
3475 1 0 -7.620450955723166 -7.733526833051582 5.2620653433172935 -16 -87 -62
3540 1 0 -7.553797492357249 -7.740873627305931 3.353001484450742 9 -1 -10
3534 1 0 -9.025241247994234 -8.8540092734167 4.057035542866934 -59 -86 -38
3528 1 0 -9.376267228772459 -8.514449277381326 5.103057184850031 15 -18 -45