LAMMPS data file via write_data, version 28 Oct 2021, timestep = 1000

5202 atoms
8 atom types

-9.525278051358015 9.525278051358015 xlo xhi
-9.525278051358015 9.525278051358015 ylo yhi
-9.525278051358015 9.525278051358015 zlo zhi

Masses

1 1
2 1
3 1
4 1
5 1
6 1
7 1
8 1

PairIJ Coeffs # lj/cut/coul/long

1 1 1 1 2.5
1 2 1 1 2.5
1 3 1 1 2.5
1 4 1 1 2.5
1 5 1 1 2.5
1 6 0 0 2.5
1 7 0 0 2.5
1 8 0 0 2.5
2 2 1 1 2.5
2 3 1 1 2.5
2 4 1 1 2.5
2 5 1 1 2.5
2 6 0 0 2.5
2 7 0 0 2.5
2 8 0 0 2.5
3 3 1 1 2.5
3 4 1 1 2.5
3 5 1 1 2.5
3 6 0 0 2.5
3 7 0 0 2.5
3 8 0 0 2.5
4 4 0 0 2.5
4 5 0 0 2.5
4 6 0 0 2.5
4 7 0 0 2.5
4 8 0 0 2.5
5 5 0 0 2.5
5 6 0 0 2.5
5 7 0 0 2.5
5 8 0 0 2.5
6 6 0 0 2.5
6 7 0 0 2.5
6 8 0 0 2.5
7 7 0 0 2.5
7 8 0 0 2.5
8 8 0 0 2.5

Atoms # charge

4 1 0 -8.083856758042725 -8.952334903547133 -7.975610364737158 12 4 -19
2 1 0 -8.928429824559016 -9.0237401829128 -8.75547574280933 13 -68 -67
1 1 0 -9.088914639804402 -8.359827319430323 -7.8884066891194005 4 6 -2
6 1 0 -7.5949090584789465 -8.073089428229876 -8.382706294078236 13 -87 -63
5 1 0 -7.708343589456708 -8.924445054005512 -8.94939423686797 -13 -34 -35
3 1 0 -8.628626722519787 -7.928086098753249 -8.9268616557357 4 1 -6
8 1 0 -6.803937968791659 -7.52977284206529 -7.730980566538781 22 -9 -22
9 1 0 -6.524966218144864 -8.085979798358368 -8.645692436724767 15 -7 -35
12 1 0 -5.6689087933263655 -7.4854799899768985 -8.818086898996622 -8 -6 -48
13 1 0 -5.414271055879273 -8.827774589685239 -8.483585892850666 25 -55 -64
11 1 0 -5.684757769716005 -7.927092004912251 -7.789890620796912 7 -8 -44
7 1 0 -6.9084026187834615 -8.729838694601463 -7.747535297096182 15 -75 -69
10 1 0 -6.483515225961473 -8.99383194903063 -9.269314326018431 4 7 -1
18 1 0 -4.087743368831746 -8.170637226417872 -9.439355180898364 20 -28 -43
17 1 0 -4.370340141796781 -9.420626165693411 -8.24323142466808 0 -15 -28
19 1 0 -3.989596615048929 -7.465350107578566 -7.567660517391631 -15 -15 -26
16 1 0 -4.500156164679186 -8.317860310161926 -8.487401619227871 4 -9 -45
15 1 0 -4.742382312276455 -8.793529141965193 -7.5526010955999725 34 -57 -57
14 1 0 -5.000894804608479 -9.469063149113582 -9.047727392515188 -5 -32 -28
20 1 0 -3.47920206593405 -9.216772872651621 -9.151061541583342 11 0 -12
62 1 0 -8.713121343142088 -6.421106389320179 -8.691592564383281 -17 -23 -22
60 1 0 -8.913116251708079 -5.3607120058175015 -8.42387693077563 20 -6 -13
66 1 0 -7.775952120878031 -7.1178665951139415 -7.887462222608013 19 -23 -31
63 1 0 -8.049416317765669 -5.793288305264393 -9.22343378731281 -17 -21 -26
65 1 0 -7.84459804120983 -6.94972615867093 -9.28179047303082 13 1 -8
61 1 0 -8.74980637762975 -7.2765473690213955 -8.015243410778199 -9 -15 -37
64 1 0 -7.9436746397092 -6.079511863596838 -7.88941013450072 -15 -81 -69
59 1 0 -9.154482232778346 -7.166243207287415 -9.445694270324964 20 -11 -28
58 1 0 -9.508490931294578 -6.403049861234852 -7.999780792085358 19 -3 -27
67 1 0 -7.183383013347574 -5.692016955481426 -8.46634777953207 1 -11 -38
69 1 0 -6.874227697658688 -7.039708031678637 -8.679749819450036 14 -11 -23
71 1 0 -6.1576243036061875 -5.61021205456412 -9.01316773191953 8 -1 -14
70 1 0 -6.85518902010524 -6.469026162075296 -7.631651725351208 11 -5 -29
73 1 0 -5.897212276907933 -5.72204453770466 -7.449113572695008 -8 -5 -45
74 1 0 -5.895416783927107 -6.674030018697227 -8.036146818165331 -19 -13 -32
72 1 0 -6.010805991282331 -6.633793460247617 -9.328814463325573 18 -13 -28
68 1 0 -6.959427609203728 -6.281854984991833 -9.361361323197121 10 -2 -8
79 1 0 -4.180115976554558 -6.5028358994512026 -8.420400204779687 8 -4 -9
77 1 0 -4.89365398354944 -6.206724905682405 -9.08831837507753 4 3 -3
75 1 0 -4.961872100922238 -6.162433179315596 -7.53563945736239 -3 -17 -30
78 1 0 -4.7433131598358145 -5.445030069566432 -8.161068230587167 0 4 -1
76 1 0 -4.914540941770722 -7.264337638435445 -8.132707984820257 -3 -8 -48
81 1 0 -3.4507533280532403 -6.007384181449735 -7.526097403339681 -98 -69 -40
80 1 0 -3.4640695601699036 -7.232213481579758 -8.727750050472887 -3 -27 -40
82 1 0 -3.183720872596543 -5.555392806928916 -8.409198205104195 -110 -47 -45
133 1 0 -9.054298870812053 -4.055650671328394 -9.11416579556184 -1 -3 -11
136 1 0 -7.592648620085881 -4.6844888702493925 -8.036693118074155 18 -6 -35
134 1 0 -8.463106346280403 -3.8247140914726425 -8.194666661327055 11 -20 -42
137 1 0 -7.451505920207808 -3.3141643871594035 -8.16374491494699 4 5 0
131 1 0 -9.262217419065305 -4.42888031724186 -7.8723657284000765 -2 -32 -46
135 1 0 -7.873067679387391 -4.5696109478246205 -9.099397856273285 -32 -95 -43
132 1 0 -9.142113375298917 -3.226225208241589 -7.571230247815385 -112 -69 -57
138 1 0 -6.849744723399242 -5.1182994133977395 -7.471556229045157 0 4 -3
139 1 0 -6.785197601696699 -4.723284190012866 -8.963514004484079 21 -13 -33
143 1 0 -5.697745806320944 -4.762357106909715 -7.9035834055024585 15 -3 -11
144 1 0 -5.676802122054359 -3.524396651445185 -8.268253499826072 20 -33 -35
142 1 0 -5.772285133539147 -3.807977612495953 -9.201271240430332 -7 -32 -17
140 1 0 -6.577653887556503 -4.024240797957863 -8.16375657355125 -16 -24 -31
141 1 0 -6.4984092714955555 -3.260581612688858 -8.864995887529904 -8 -30 -48
152 1 0 -3.4712983232942043 -4.419810820245994 -7.925511285333571 24 -12 -15
150 1 0 -4.144972991054492 -3.588510566790834 -8.608561094618222 -26 -24 -37
145 1 0 -4.995789339182868 -4.157177679415004 -8.50406438565877 16 -13 -29
146 1 0 -4.971170563408034 -5.07500844175772 -9.343469078258597 16 -4 -14
148 1 0 -4.5458356227430246 -4.623924997501655 -7.447927175455427 12 -3 -11
147 1 0 -4.566156364882571 -3.519964302755687 -7.656037465012238 0 6 -2
151 1 0 -4.046526387488461 -4.847955261194723 -8.66349799506903 3 5 -6
149 1 0 -4.285396347357072 -4.159533922402199 -9.438508514296336 0 -68 -47
581 1 0 -8.479027209233195 -7.812880152092671 -6.899333153356411 16 -10 -23
580 1 0 -8.741238954759748 -9.14144310175244 -7.207277754841188 14 -20 -47
578 1 0 -9.35478078549291 -8.102532510676888 -6.961981774570368 -112 -75 -27
583 1 0 -7.629721045226615 -8.585946865501025 -6.918675133642351 2 1 -2
582 1 0 -7.925853183526217 -8.604522821923036 -5.387084538388212 6 -15 -26
577 1 0 -9.452565385342824 -9.059275941975672 -5.478141301855036 25 -77 -90
579 1 0 -8.753494595610382 -8.317080495476644 -6.025118772625678 1 -22 -42
587 1 0 -6.36642010514161 -8.058970891756019 -5.301114842684194 15 -12 -39
584 1 0 -7.284176321641216 -9.448914394998596 -6.208035965823561 1 4 2
586 1 0 -6.388669405667536 -8.417304375276752 -6.26447501489439 23 -10 -28
585 1 0 -7.246034699068335 -7.871367008568614 -5.926269760995993 17 0 -17
588 1 0 -5.911861932292116 -8.783772245927112 -7.352097215715845 21 -9 -18
589 1 0 -5.357706824412732 -8.893945103359718 -6.248277386366094 -49 -83 -5
590 1 0 -5.082877241901351 -7.9795110990184845 -6.968975604441127 -10 -19 -47
597 1 0 -3.2792462525072437 -8.990171623985578 -6.52712380672261 8 -2 -10
594 1 0 -3.55557113797364 -8.176620020047785 -5.709411585092448 15 -9 -17
591 1 0 -4.86401746842154 -7.696571641733569 -5.893572006434322 12 -7 -13
593 1 0 -3.932783277280858 -9.25860518803859 -7.266909480976085 12 -36 -34
592 1 0 -4.294528806899843 -8.565713543932308 -6.526282590260222 16 -6 -20
595 1 0 -3.3938284180099436 -9.065074279820356 -5.336472877143406 12 -7 -15
596 1 0 -3.2885187468633053 -7.719347944876328 -6.629283885054912 5 1 -4
649 1 0 -7.442564251383912 -7.3709608507823985 -6.789895861513954 12 -1 -7
648 1 0 -7.454567072260952 -6.119473412894867 -6.386004738751738 16 1 -14
640 1 0 -9.460758782958708 -5.398083468162294 -6.3809527080855 23 -17 -42
644 1 0 -8.233121177007735 -6.725130965147962 -7.0050202911987425 1 4 -1
645 1 0 -8.108792882934615 -7.149915256507301 -6.020359197806279 0 -8 -35
643 1 0 -8.867931859911426 -5.856750549286587 -7.27222948643678 17 -29 -39
641 1 0 -9.111383417761564 -6.470932716191608 -6.228588125314657 17 -5 -30
642 1 0 -9.076179669828036 -5.584964283846545 -5.381232094763672 19 -20 -35
647 1 0 -7.633483105458462 -5.395644949530328 -5.365241762336094 12 -1 -10
646 1 0 -7.862239628506142 -5.409215763075967 -7.077583457181081 16 -15 -36
651 1 0 -6.5856037008253185 -6.573573197852252 -6.576660160103435 -4 -16 -38
654 1 0 -6.023357413241714 -7.396305477019673 -7.001416615131383 13 -15 -39
656 1 0 -5.665485126102375 -5.382779076024949 -5.977283144366951 18 -67 -81
652 1 0 -6.583155756876735 -6.014398634841358 -5.395507671708816 -80 -96 -68
657 1 0 -5.51479426280314 -6.362789202899168 -6.623275438041636 -13 -20 -50
650 1 0 -7.105172135583355 -6.908511879722807 -5.487632805449273 3 1 -1
653 1 0 -6.580628414178249 -5.484195537974821 -6.4985119286990285 5 5 -8
655 1 0 -5.789837377596456 -7.081148383901486 -5.967789772257809 2 7 -3
661 1 0 -4.32490952581816 -5.897865149580079 -6.773439204054077 1 5 -3
660 1 0 -4.356511464080558 -7.058668948525367 -5.3584972545569896 -6 -39 -48
663 1 0 -3.604576144668039 -6.606969950875597 -6.202238153961272 -27 -103 -40
662 1 0 -3.981023617351185 -5.591924790358294 -5.688012518160223 17 -8 -21
659 1 0 -4.755626024888845 -7.014548439940011 -6.7995693142606 10 -29 -35
658 1 0 -4.783811394418635 -6.2480004962779905 -5.7843213194887895 2 2 -1
708 1 0 -8.542242950300459 -4.66823366827662 -5.410105316207565 17 -10 -23
713 1 0 -7.418049562538912 -3.4057716574582955 -5.96142754646652 8 -14 -37
712 1 0 -7.508103012924718 -3.962391869800809 -7.331708198357427 1 5 2
707 1 0 -8.82300363212617 -4.840170471408061 -7.003839947720299 9 1 -10
709 1 0 -8.466410312829845 -3.9512246105194966 -6.981255707976905 -1 2 -2
706 1 0 -8.833976175668699 -3.7111190595526384 -5.9668042905914715 22 -34 -36
710 1 0 -8.409923029493916 -5.290017803078379 -6.232513717064567 -13 -19 -45
711 1 0 -7.512229294839291 -4.3972490288691155 -5.431005059776305 -81 -106 -25
715 1 0 -6.703091795094993 -3.6090659011174258 -6.718049395555405 12 -90 -83
718 1 0 -6.136695304789408 -4.4876794482629165 -6.928819978569864 -1 2 0
716 1 0 -6.566234435861192 -4.886871413984321 -5.585181207024213 20 -19 -38
714 1 0 -7.368006322959411 -4.692263593998338 -6.456172397345108 -7 -32 -33
720 1 0 -5.609936364220704 -4.008527903156096 -5.854191826047292 -7 -40 -60
717 1 0 -6.2918325933564665 -3.1854383320642534 -5.7145456009812206 13 -35 -38
719 1 0 -5.634311282513394 -3.373839231976392 -6.825027228210766 16 -11 -23
726 1 0 -3.2395560276424042 -5.209551324346599 -6.5019084734709 0 6 -1
724 1 0 -4.08865710995843 -4.239740128356329 -5.746736064566317 5 4 -4
722 1 0 -4.90182063856455 -4.783018941927676 -5.466154731346723 -1 -28 -26
721 1 0 -4.99971003757249 -4.871975799553041 -6.616324529924227 -14 -39 -28
723 1 0 -4.615158277883958 -3.5768522852435503 -6.639468988856079 -17 -16 -36
725 1 0 -3.689380513173668 -4.150321846960732 -6.796896482010447 -105 -54 -39
1150 1 0 -8.74659191625326 -8.882394006636241 -4.640967189419088 0 -3 -2
1149 3 -1 -9.267165374279966 -7.582316866051447 -5.2752578327959645 9 -3 -11
1152 1 0 -8.03119493328096 -7.554485572954649 -4.886241843215948 -16 -20 -34
1154 1 0 -7.472908037695049 -8.504277744934859 -4.348666227759668 18 -9 -30
1151 1 0 -8.69224800924214 -7.798521737854344 -4.004477901245972 15 -32 -34
1153 1 0 -7.7013419740632125 -7.461586585162534 -3.6456718318793206 14 -13 -26
1160 1 0 -5.739999588110115 -8.760227948044466 -4.989029191575326 3 1 -4
1162 1 0 -5.413440876743666 -7.727172379390247 -5.0586255676584715 3 2 -9
1157 1 0 -6.583834075146207 -9.383480348503316 -4.92936727796057 10 -14 -32
1156 1 0 -6.7833057613816985 -7.615948300316938 -4.2942710991653055 -5 -21 -39
1159 1 0 -6.06284348680756 -9.189296778328913 -4.078248246550203 11 -2 -12
1161 1 0 -5.552779402066373 -8.258838698712589 -4.076962894823806 8 -55 -52
1158 1 0 -6.533994785429718 -8.04169965509172 -3.39857674012005 -9 -17 -37
1155 1 0 -6.809954127546207 -9.16520843728334 -3.4209108595332887 17 -19 -36
1168 1 0 -3.6605683309748716 -9.510438068668865 -4.334806063117025 -19 -14 -33
1166 1 0 -4.453169421541625 -9.041585216225862 -5.231610620105724 -94 -73 -45
1163 1 0 -4.954234903407424 -9.102456290229078 -4.399989953578735 -10 -15 -31
1165 1 0 -4.513995050991753 -8.07534901499049 -4.789155712162916 -12 -25 -45
1167 1 0 -4.276689018410196 -8.418440935857223 -3.4837051004572985 18 -9 -42
1164 1 0 -4.618258483769176 -9.36338823505904 -3.3909716967915933 -9 0 -35
1169 1 0 -3.4164588823176856 -9.188004831976087 -3.3171494942652364 -105 -50 -8
1214 1 0 -8.260374172982253 -6.711148285625895 -4.089057373614863 8 0 -11
1215 1 0 -8.026389649769301 -6.38181357555053 -5.053580794994116 -28 -85 -41
1213 1 0 -8.416374737002364 -5.497137006666846 -4.583624005232415 -3 -13 -40
1212 2 1 -9.056900765637781 -6.655484852763372 -4.840841394541372 2 0 -1
1211 1 0 -9.069521507991537 -7.211413238685274 -3.3525997182506866 0 -6 -37
1216 1 0 -7.969878769408123 -5.476607779040619 -3.484657745388703 14 -16 -33
1217 1 0 -7.277435117417507 -6.16526714541181 -4.2422241783428465 -4 -18 -30
1222 1 0 -5.654816537656526 -5.384090185525119 -3.453880191922246 3 5 -1
1223 1 0 -5.645053735799594 -6.051245991409751 -5.191835573023666 19 -7 -41
1220 1 0 -6.155385373715569 -6.874311199422596 -4.8305121970855405 17 -14 -32
1218 1 0 -6.269682270112454 -6.227505951589217 -3.2133152915526613 14 -4 -20
1221 1 0 -6.038726818941499 -6.9954136646918466 -3.7290502449824916 17 -10 -25
1219 1 0 -6.219272324684396 -5.946345237698559 -4.247439471191745 20 -67 -75
1225 1 0 -4.837542350592452 -7.253629547921751 -3.9911065680690467 6 1 -7
1231 1 0 -3.3557981573139086 -5.817610908501034 -3.2524590742492676 -40 -103 -27
1224 1 0 -5.134160146740578 -6.268257841697178 -3.5491255609233687 15 -11 -30
1226 1 0 -4.721435070535092 -5.337760076511709 -4.023434911175051 -2 8 1
1227 1 0 -4.636135240877351 -6.357699862308186 -4.548305271693105 5 -36 -28
1228 1 0 -3.927586524779568 -5.420522926864042 -4.623132275356218 15 -9 -34
1230 1 0 -3.547924380138549 -6.400652388197515 -5.180722319432226 0 -27 -35
1229 1 0 -3.922112572906746 -6.79059877590491 -3.9778342786434493 14 -16 -28
1278 2 1 -8.64319972084555 -4.651438005222806 -3.9941537467734936 2 2 -1
1277 1 0 -8.862084029688836 -3.39953364785587 -4.507324342635897 -80 -40 -32
1282 1 0 -7.56220913168792 -3.350113706474067 -4.808196818183333 20 -37 -34
1280 1 0 -7.659003099815975 -3.5255088284145546 -3.747909340045601 13 -27 -43
1281 1 0 -7.571896887966016 -4.554425065454574 -3.3279948543309295 4 0 -7
1279 1 0 -7.6796581529065735 -4.3528850838603415 -4.3456779552898555 -86 -84 -42
1276 1 0 -9.464669398490278 -4.139988612087946 -3.3040745181838767 19 -3 -36
1284 1 0 -6.708159918854356 -3.968480343201327 -4.104268581103972 -115 -50 -76
1289 1 0 -5.700636425087529 -3.9796877812867315 -4.771799000540565 0 5 -1
1286 1 0 -5.9247033657131185 -4.52495946124696 -3.994982758160981 5 3 -3
1285 1 0 -6.650834217318669 -5.009331617482252 -3.531156892540262 7 0 -9
1287 1 0 -5.90516585741892 -5.070037872735309 -4.845784900262028 -88 -81 -52
1283 1 0 -7.008591041111039 -5.063217805060468 -4.687822671910147 0 0 -4
1288 1 0 -5.754457290988213 -3.819948920299703 -3.2202263565457643 -3 -22 -29
1293 1 0 -4.425956811632045 -3.710553870276655 -3.6943226190158187 15 -12 -21
1292 1 0 -4.504543176454494 -4.473428343805649 -4.46719688458091 14 -7 -13
1291 1 0 -4.731811801495651 -3.441378730251855 -4.850305949627158 3 1 -7
1290 1 0 -4.999333817015192 -4.589767919407935 -3.324989742620528 18 -78 -66
1295 1 0 -3.5814320561385857 -3.5521641924050384 -4.752869034123961 2 2 1
1297 1 0 -3.2176247276411827 -4.6122038743160045 -4.6976150728035115 11 3 -13
1294 1 0 -4.037676215741877 -4.843148289577101 -3.508092681123084 1 -2 -7
1296 1 0 -3.3372418783181197 -3.4106580818969228 -3.573994621053243 23 -13 -33
1739 1 0 -7.632706875232839 -9.02316855212391 -1.5216932486253834 8 7 0
1740 1 0 -7.5351821039286255 -8.312234527100818 -2.8007480979292083 -9 -11 -44
1737 1 0 -8.258583570603514 -8.271175364506544 -1.083108937827427 18 -23 -36
1736 1 0 -8.588318256727923 -8.282064924434659 -2.936975549309431 -17 -33 -34
1738 1 0 -7.975891936154512 -9.282430965222195 -2.7455675496223386 13 -27 -36
1735 1 0 -9.114489358836257 -8.267093722831829 -1.9170220167865109 11 1 -11
1734 1 0 -9.135918409972978 -9.503994083975808 -1.8497547279617481 -14 -15 -37
1741 1 0 -7.379711859825003 -7.827185775016366 -1.8344440243559836 27 -8 -22
1742 1 0 -6.778214725168224 -8.541431062537146 -1.1044722221939969 3 -28 -47
1745 1 0 -5.955462009632305 -9.089237261862205 -1.9106607377926854 8 -25 -31
1748 1 0 -5.508633921950038 -7.55828143273976 -3.0468884241369416 9 -2 -9
1744 1 0 -6.327612342886766 -7.691908871902571 -1.822828270296509 -7 -17 -30
1747 1 0 -5.560214243703313 -8.297564166838399 -1.3142857500188048 -3 -22 -27
1743 1 0 -6.551847501853866 -8.478349025557382 -2.427762224941599 -113 -33 -67
1746 1 0 -5.702456492500426 -8.659551285012283 -3.044488678087804 3 3 -54
1749 1 0 -5.023619277873597 -8.17992017272021 -2.3614989892051756 3 -1 -1
1750 1 0 -4.956991457932089 -9.489961267743704 -2.4172708314579463 20 -11 -23
1756 1 0 -3.199936869208564 -9.181683024357916 -1.4735278992839698 9 -28 -46
1753 1 0 -4.0227441491070985 -8.932948706789238 -2.2080658610330426 7 -15 -40
1755 1 0 -3.2871385123137054 -8.174618317000673 -1.1722575702373044 -4 4 -1
1752 1 0 -4.425200998972929 -8.182382283112759 -1.2750757201585645 -19 -15 -34
1754 1 0 -3.580897814644034 -7.926834176713323 -2.8283205602813966 -7 -37 -31
1751 1 0 -4.867293503792474 -9.20320992532212 -1.260414975680219 -17 -19 -58
1797 1 0 -8.143608193777304 -6.15121633880334 -2.2307650661011738 6 1 -10
1798 1 0 -7.981618215682648 -7.253861605992348 -2.453377530668462 -10 -22 -32
1799 1 0 -7.752560974854927 -5.380203175763749 -1.7217831016537837 -5 -13 -47
1793 1 0 -9.412786247978968 -6.881316919589669 -1.2119195521255672 1 6 -2
1796 1 0 -8.57039013770905 -7.272052939525035 -1.551269357344055 16 -9 -21
1794 1 0 -8.95816058618897 -6.268144689826461 -3.051709958960464 -91 -36 -16
1795 1 0 -8.88574071600409 -5.657901465236155 -1.4520731204475346 15 -16 -47
1802 1 0 -6.955118974893773 -5.436445376226815 -2.4963666668755686 8 -11 -38
1800 1 0 -7.374007545367243 -6.661952085779494 -1.7669774187540883 -93 -53 -48
1805 1 0 -6.3137654647327155 -6.435116270709809 -1.9579878015414978 16 -77 -50
1806 1 0 -5.352200073911361 -6.549000341488127 -2.6406040886500053 8 -3 -10
1803 1 0 -6.840284053609703 -7.2284970143605465 -2.5111914950999403 -2 -21 -40
1804 1 0 -6.500032993894887 -5.431384608680015 -1.5008743471423356 -14 -14 -42
1801 1 0 -7.331807866288887 -6.386554550820797 -3.052707252098593 18 -8 -18
1808 1 0 -5.262506824434591 -7.338960998630938 -1.8359998303102458 2 2 2
1809 1 0 -4.559817995540895 -6.466752569300102 -1.8947128949524024 0 6 1
1815 1 0 -3.39491870271562 -6.320280434419028 -1.6992844090510628 18 -16 -41
1813 1 0 -3.768234051012041 -7.390138135977387 -1.7875539379229943 -25 -73 -49
1807 1 0 -5.264228233169457 -6.012486026558761 -1.1936344359187026 -91 -69 -46
1811 1 0 -4.532410431997892 -7.2740386334152225 -2.635987137887016 10 -4 -22
1810 1 0 -4.536652678394774 -5.351760894293161 -1.8392589488595923 15 -7 -27
1814 1 0 -3.5343144344062605 -6.742988913888291 -2.7768778162381498 15 -82 -68
1812 1 0 -4.3323580064299945 -5.959864479203248 -2.8174383598292914 3 -10 -30
1862 1 0 -8.791749039449083 -4.7268212316884 -1.7570036270994458 0 -18 -42
1865 1 0 -7.915465619051413 -4.5032914392649 -2.37082517825746 18 -14 -31
1867 1 0 -7.562623908141813 -3.512002326623523 -2.5045420469024213 15 -11 -22
1861 1 0 -9.073331692573861 -3.7439057956062727 -2.3173543812411554 -2 -21 -22
1860 1 0 -9.39716878939404 -3.807885242648334 -1.3305673736722083 8 -21 -39
1864 1 0 -8.306309672978246 -3.453801655588902 -1.3670039560486436 3 -4 -8
1863 1 0 -8.675341610800558 -4.843109063660937 -2.939507872979175 16 -17 -28
1866 1 0 -7.574850020123409 -4.24101083304447 -1.362755934163585 0 0 1
1870 1 0 -6.703344798608702 -3.996624099870748 -2.9187538623012657 -8 -21 -23
1871 1 0 -5.884416388638327 -5.0886302413645454 -2.485296319307836 2 -25 -30
1869 1 0 -6.7675961250664685 -4.158669735508664 -1.9399175486624052 10 -11 -33
1868 1 0 -6.961781277683975 -3.406904430978437 -1.1949893125949784 1 -2 -7
1872 1 0 -5.36065176789433 -4.150948737499711 -2.1561980338354 -14 -28 -27
1874 1 0 -4.287984223835426 -4.343797682989729 -1.541394091208954 -13 -32 -38
1875 1 0 -3.883213587305912 -4.804016790876726 -2.4460891359055195 6 1 -6
1873 3 -1 -4.367418599530095 -3.795443020803332 -2.5726622856984513 2 1 0
1876 2 1 -3.3542983636233514 -4.022297716178311 -2.1125015599873067 4 2 -2
2317 1 0 -9.427272655261392 -8.955848824020944 0.04025080036546666 0 3 3
2323 1 0 -7.566486192247809 -8.534187162917803 0.6527496856139527 23 -13 -28
2321 1 0 -8.314747308899449 -9.056974617608338 -0.2071034056105031 12 -9 -15
2324 1 0 -7.4700421466417035 -8.271008524827305 -0.29220397308559554 14 0 -12
2319 1 0 -9.100003174036395 -8.957574131364302 -1.0382657942498892 13 -13 -43
2320 1 0 -8.662914024256892 -8.280912778098307 0.6052521575391936 11 -3 -14
2322 1 0 -8.262463843285799 -7.645456199373568 -0.16014113956968565 20 -48 -58
2318 1 0 -9.325263535520184 -7.9462413910262155 -0.7605505923830508 1 -18 -35
2330 1 0 -5.637613555971547 -8.93388748295574 1.0030297261202765 6 -23 -30
2327 1 0 -6.539897942704284 -7.646987551215491 -0.6993196356813408 -94 -98 -34
2329 1 0 -5.848337832360368 -8.012440909950708 0.05006929506312409 23 -32 -33
2326 1 0 -6.625638797508597 -8.670997508964767 -0.008280164925076813 4 4 0
2328 1 0 -6.267010488649418 -9.49905143060722 -0.7103215579586927 12 -7 -15
2325 1 0 -7.367376405152741 -9.363091075773953 -0.2877020372727266 -1 1 -7
2336 1 0 -3.526428863281111 -7.805288695584833 -0.1971814874289276 16 -37 -32
2332 1 0 -4.748755426406944 -8.53060763285141 -0.2511058784186016 8 -3 -7
2334 1 0 -3.9631388208513103 -8.121860902156582 0.661867938449645 4 4 1
2331 1 0 -5.050598123829283 -7.676140826017602 0.6887192161004924 -4 -10 -39
2333 1 0 -4.3486880666494425 -9.242834822104724 0.6919015617755078 15 -17 -32
2335 1 0 -3.8932049054380404 -8.921346496778357 -0.5841400901548596 16 -21 -41
2391 1 0 -7.4608876872554175 -5.860093114974944 -0.8650513641120653 26 -22 -40
2387 1 0 -8.223271439280271 -6.565232190188178 -0.9348830613852699 2 6 -3
2383 1 0 -9.471684987154362 -6.907125539684123 -0.17583777979506238 -11 -14 -36
2384 1 0 -8.952621125891017 -5.888838449599732 0.6056499992965527 1 9 -7
2385 1 0 -8.85406097256809 -7.167602513447931 0.7315321709750611 1 -24 -49
2386 1 0 -8.460179110486905 -5.344096729958247 -0.5323949048995893 -18 -11 -44
2388 1 0 -8.175493780116872 -6.512669309010393 0.18848648541410903 12 -10 -31
2390 1 0 -7.852652904495564 -7.3766818070767375 0.708844904847048 0 2 -4
2389 1 0 -7.878255316595463 -5.5637790127697 0.5468518355177987 19 -10 -28
2382 1 0 -9.487709940577256 -5.926048136762955 -0.5485229803644747 10 -33 -36
2399 1 0 -5.5609622349999475 -7.021208469468959 -0.823875930142342 17 -36 -38
2392 1 0 -7.211884095508595 -7.047691304264422 -0.015425800579355615 5 7 -2
2393 1 0 -7.002049455078776 -5.967972275877631 0.1784939516634586 12 -55 -71
2398 1 0 -6.0383751433511685 -5.765421986982866 -0.31710231868845656 -1 -18 -39
2394 1 0 -6.716481786368375 -6.557681646526332 -0.7814237266444832 5 -95 -64
2396 1 0 -6.380043465541952 -5.307074469814812 0.6715324009652177 10 -4 -36
2395 1 0 -6.390475882427859 -6.499525907818133 0.9236958563568083 -11 -29 -47
2397 1 0 -6.116214426838299 -7.096733563606681 0.24269038105034305 -63 -96 -28
2402 1 0 -4.47884502273229 -6.956568138056278 -0.9213866089793008 -6 -9 -33
2406 1 0 -3.487106910666031 -6.968005733770086 0.4133996716780382 -7 -42 -52
2405 1 0 -3.642117693606078 -6.399382488338508 -0.3633522980122403 2 -14 -24
2403 1 0 -4.078730147082486 -5.474822337246769 -0.5684162926616696 -109 -54 -28
2400 1 0 -4.929048778083745 -6.765215880253549 0.22583917392890412 -14 -36 -33
2404 1 0 -3.8806574582344124 -5.995390914189488 0.5398086333465407 -10 -26 -27
2401 1 0 -4.830957582926321 -5.513054490833956 0.5367044209714593 13 -2 -16
2450 1 0 -8.082370070537682 -4.453617378091831 0.7245828538039845 -86 -56 -74
2449 1 0 -8.48730000653572 -4.3180238601282195 -0.7882747973348555 19 -9 -19
2447 1 0 -8.989631654495945 -4.900847025264565 0.17789716106903372 1 5 -7
2448 1 0 -8.747714631814794 -3.5929872159032534 0.9858874801445547 9 -26 -33
2451 1 0 -7.502945014405995 -4.024215583947629 -0.23556022246857986 2 3 -5
2457 1 0 -5.522407745799332 -4.513496377367014 0.22709994951989956 13 -95 -80
2454 1 0 -6.192757605322241 -4.480810788355244 -0.8408345783057767 19 -7 -18
2456 1 0 -5.571277648694376 -3.6979501501770953 -1.0259459552346835 -4 -10 -33
2455 1 0 -5.9775181310812915 -3.4506861077159354 -0.09830733275213464 2 2 -1
2452 1 0 -6.989366650233267 -4.92625840043881 -0.08062140958860453 -96 -40 -46
2453 1 0 -6.503446015614923 -4.129190936959254 0.9177958526944314 -115 -49 -25
2464 1 0 -3.5072040920284615 -3.2924893349333755 -0.9013447314955215 24 -8 -34
2465 1 0 -3.369328053609997 -4.407348817028412 -0.8810642347783726 13 0 -11
2458 1 0 -5.0634758281697145 -5.072756925724542 -0.6571264573220403 -10 -68 -63
2460 1 0 -4.519846549047989 -3.975180928592196 0.953861465896752 11 0 -14
2462 1 0 -4.422310488519684 -4.611916231412549 0.03901831693192081 21 -24 -32
2459 1 0 -4.917043319585133 -3.3910825930157733 0.10609595318026956 -108 -79 -34
2461 1 0 -4.452643079748812 -3.714641166730363 -0.798021387956985 -2 -15 -42
2463 1 0 -3.8088669055012416 -3.5734793413338166 0.16275808380730086 13 -2 -16
2883 1 0 -8.460067242170048 -8.320045382058392 2.841110480382412 -84 -13 -39
2884 3 -1 -7.853518884705966 -8.050644607169392 1.6086243520042418 2 2 -3
2885 1 0 -7.6021459454014675 -8.823449351510671 2.492095621287451 -6 -6 -41
2882 1 0 -8.82044604001526 -9.502484095881478 2.741470841700122 -14 -26 -38
2881 1 0 -9.516201468902345 -8.903280662158885 1.0916488983623238 -17 -31 -35
2890 1 0 -6.040517124574309 -8.976031793873265 2.028253764418104 7 -2 -12
2892 1 0 -5.43279192901834 -8.465835989802043 3.0391467233555742 -15 -15 -20
2888 1 0 -6.681912125097786 -8.009225209922509 2.221538279874457 4 6 -8
2891 1 0 -5.899997452677527 -7.983341804843304 1.4213802179909807 19 -8 -21
2886 1 0 -6.942086735816561 -7.6010082903452645 1.1235110462422895 -12 0 -21
2887 1 0 -6.906683838050608 -9.194116260545478 1.123452527948652 -11 -7 -40
2889 1 0 -6.147316635903947 -7.533515553458743 2.9259438683919043 -4 -40 -46
2896 1 0 -4.7458527019767525 -9.119684266161116 2.7310628253939564 -19 -28 -37
2894 1 0 -5.1698837560591935 -9.521987771616988 1.8392118431345499 3 3 -5
2900 1 0 -3.2576625344741954 -7.41657767628231 2.529971107061583 -1 4 1
2901 1 0 -3.1919525585217734 -8.284854444112511 1.7515307709825547 14 -9 -20
2899 1 0 -3.7646836166163533 -9.51919071548936 3.0203649207843637 -61 -83 -51
2897 1 0 -4.055622568474196 -7.625586842876811 1.718563847268968 2 -3 -47
2893 1 0 -5.234225092641068 -7.757532291939204 2.3292968270355625 -6 -92 -61
2898 1 0 -3.91218881188542 -8.515684624279062 2.6820530458015512 2 4 0
2895 1 0 -4.811869756441582 -8.31775430656504 1.5646692380540217 1 -13 -25
2951 1 0 -9.121756927332788 -7.392652740330071 1.6930690405359867 0 4 -10
2953 1 0 -8.439021368191574 -5.5544472688301125 1.6834523620715733 2 2 -4
2955 2 1 -8.210837884941682 -6.774283793854546 1.4999087981752788 3 6 -3
2954 1 0 -8.364889451907311 -7.343332683240012 2.5065847213653933 -48 -90 -29
2952 1 0 -8.717836203284795 -6.388473892238225 2.302159734328102 10 1 -6
2956 1 0 -7.751365476150278 -6.104913038448493 2.2655655314366885 20 -8 -46
2950 1 0 -9.524300022896291 -6.187559912407374 1.6749656165295073 -80 -38 -28
2963 1 0 -6.007599309371302 -6.39314492046169 3.042784256560031 9 -4 -6
2962 1 0 -6.079306763783339 -7.0418947508656276 1.8886931425881206 4 7 -8
2958 3 -1 -7.303443171596 -6.190756188363569 1.3062892783750537 7 1 -3
2957 1 0 -7.347070671576804 -6.979366112490637 2.3205435274871644 6 -22 -44
2960 1 0 -6.473007512058829 -6.002214625738449 1.9781814759053922 -11 -10 -41
2964 1 0 -5.637618697837248 -5.994355041888591 1.3302316194330002 5 6 -8
2959 1 0 -7.162819788243822 -5.5178768467530315 2.78908356498976 16 -8 -17
2961 1 0 -6.199745733836804 -5.321316191136319 3.059389783912627 -17 -7 -26
2971 1 0 -3.3237912903437743 -6.045990951233128 1.3250182460322286 -7 0 -30
2972 1 0 -3.2048223441696906 -6.187746415903396 2.8287985560736324 -1 3 -6
2969 1 0 -3.9514137566915295 -6.524339459717045 2.1145694533166313 0 0 -6
2970 1 0 -3.580485356219142 -5.34228737989862 1.9767140764359905 2 -85 -54
2967 1 0 -4.481566154988047 -6.791985077901246 1.1528876963720414 3 -1 -4
2965 1 0 -5.268070240139886 -6.374482376789152 2.34337808974229 5 5 -3
2966 1 0 -4.603542359381379 -5.789495895520631 1.6921596287454532 3 -1 -37
2968 1 0 -4.198501021621964 -7.179921249294073 3.1461927162066132 -127 -61 -19
3013 1 0 -7.497009582680283 -3.880098340297023 2.5343206033398116 2 -15 -46
3009 1 0 -9.23117520188535 -5.214411154839009 2.3166420712872635 1 4 1
3010 1 0 -9.098658903835515 -5.035510414447311 1.1678202303474507 -2 -14 -28
3011 1 0 -8.975306766250435 -4.1596291739446976 2.063354586762627 1 4 -4
3014 1 0 -7.436893773392247 -3.8645225652649047 1.3439492046968686 3 1 -11
3012 1 0 -7.942363242924904 -4.85733375533456 2.397876516712537 9 -4 -7
3019 1 0 -5.325347494840469 -3.501677180582765 1.5191377750574937 10 -15 -29
3016 1 0 -6.333830332543704 -4.959177740014899 2.069976649129029 -118 -57 -72
3017 1 0 -6.158198057178673 -3.466104496214847 2.5790907387752786 24 -14 -35
3015 1 0 -7.289186972134269 -4.879523208911526 1.3407859223893632 8 0 -14
3018 1 0 -5.476426589030461 -4.636910290178631 1.4978422834011678 -5 -31 -29
3022 1 0 -4.409678014591636 -4.391791107145397 2.1130603813800706 -32 -75 -67
3026 1 0 -3.275313735339155 -3.4693910766246865 3.0645911176225615 13 -11 -24
3023 1 0 -4.111004063740532 -3.414766322195142 2.1959777573443913 0 -8 -11
3024 1 0 -4.043427335050021 -4.987016047138502 1.1119744372490796 2 -57 -66
3020 1 0 -5.233381632323828 -3.8449498896228764 2.5333819947410854 8 -13 -37
3025 1 0 -3.340235393533889 -4.443083129082842 2.5039342941159513 20 -19 -35
3021 1 0 -5.161548750502173 -5.105367153955768 2.6842074794102824 4 3 -5