LAMMPS data file via write_data, version 28 Oct 2021, timestep = 202000

1516 atoms
11 atom types
1000 bonds
1 bond types
500 angles
1 angle types

-12.373905253320784 12.373905253320784 xlo xhi
-12.373905253320784 12.373905253320784 ylo yhi
-12.373905253320784 12.373905253320784 zlo zhi

Masses

1 15.9994
2 1.00794
3 22.989769
4 35.453
5 60
6 60
7 60
8 15.9994
9 1.00794
10 22.989769
11 35.453

PairIJ Coeffs # lj/cut/coul/long

1 1 0.155354 3.169 9
1 2 0 0 9
1 3 0.234061 2.66425 9
1 4 0.044567 3.99975 9
1 5 0 0 9
1 6 0 0 9
1 7 0 0 9
1 8 0.155354 3.169 9
1 9 0 0 9
1 10 0.234061 2.66425 9
1 11 0.044567 3.99975 9
2 2 0 0 9
2 3 0 1.07975 9
2 4 0 2.41525 9
2 5 0 0 9
2 6 0 0 9
2 7 0 0 9
2 8 0 1.5845 9
2 9 0 0 9
2 10 0 1.07975 9
2 11 0 2.41525 9
3 3 0.352644 2.1595 9
3 4 0.067146 3.495 9
3 5 0 0 9
3 6 0 0 9
3 7 0 0 9
3 8 0.234061 2.66425 9
3 9 0 0 9
3 10 0.352644 2.1595 9
3 11 0.067146 3.495 9
4 4 0.0127851 4.8305 9
4 5 0 0 9
4 6 0 0 9
4 7 0 0 9
4 8 0.044567 3.99975 9
4 9 0 0 9
4 10 0.067146 3.495 9
4 11 0.0127851 4.8305 9
5 5 0 0 9
5 6 0 0 9
5 7 0 0 9
5 8 0 1.5845 9
5 9 0 0 9
5 10 0 1.07975 9
5 11 0 2.41525 9
6 6 0 0 9
6 7 0 0 9
6 8 0 1.5845 9
6 9 0 0 9
6 10 0 1.07975 9
6 11 0 2.41525 9
7 7 0 0 9
7 8 0 1.5845 9
7 9 0 0 9
7 10 0 1.07975 9
7 11 0 2.41525 9
8 8 0.155354 3.169 9
8 9 0 0 9
8 10 0.234061 2.66425 9
8 11 0.044567 3.99975 9
9 9 0 0 9
9 10 0 1.07975 9
9 11 0 2.41525 9
10 10 0.352644 2.1595 9
10 11 0.067146 3.495 9
11 11 0.0127851 4.8305 9

Bond Coeffs # harmonic

1 100000 1

Angle Coeffs # harmonic

1 100000 109.47

Atoms # full

197 66 2 0.4238 -9.857027195002233 -12.106469090939502 -7.59176685234185 11 17 13
301 101 1 -0.8476 -12.10701691339936 -8.916564854336254 -10.159621196494097 7 -12 6
947 316 2 0.4238 -7.5302641272047985 -8.445260847367713 -6.820183808539925 -19 18 -3
103 35 1 -0.8476 -11.56011631790806 -11.43320645424025 -7.097947579534405 -5 -11 -17
509 170 2 0.4238 -10.233298533588092 -7.406903926213295 -7.300737193901936 2 1 1
104 35 2 0.4238 -11.62881246138668 -10.69723237123895 -6.424439777090966 -5 -11 -17
302 101 2 0.4238 -11.368176021787047 -8.629720398370477 -9.549846842068987 7 -12 6
1232 411 2 0.4238 -6.200170290600254 -8.388589491620658 -8.557714148760457 -5 -13 15
1233 411 2 0.4238 -6.274509434467814 -9.905927466773232 -9.156679155195333 -5 -13 15
510 170 2 0.4238 -11.095763351429714 -6.689448305261326 -8.487333606893406 2 1 1
1011 337 2 0.4238 -7.276590601720671 -11.672315359101017 -10.416462149980307 0 1 7
508 170 1 -0.8476 -10.870530688440684 -7.562805866282668 -8.055468891990145 2 1 1
946 316 1 -0.8476 -8.109722641418541 -7.635496432492159 -6.727992634490575 -19 18 -3
948 316 2 0.4238 -7.9861159730263935 -7.044664051633977 -7.5252560733753775 -19 18 -3
1009 337 1 -0.8476 -6.33586757783396 -11.818024502434307 -10.110196195955014 0 1 7
105 35 2 0.4238 -12.037395986802386 -12.24296641694599 -6.756651947874911 -5 -11 -17
918 306 2 0.4238 -7.232037175226949 -6.529335399305616 -9.732206154186347 -14 -2 2
916 306 1 -0.8476 -7.9534721883614425 -7.200356080124094 -9.561172429402184 -14 -2 2
917 306 2 0.4238 -8.791957701104526 -6.9137176432363905 -10.024605529490438 -14 -2 2
1085 362 2 0.4238 -8.028929661020662 -11.474335718672489 -7.431292661545796 -15 10 16
1084 362 1 -0.8476 -7.822396674880716 -10.500035910310466 -7.341436851260004 -15 10 16
1086 362 2 0.4238 -7.639660805703677 -10.285151239130403 -6.382050468298087 -15 10 16
438 146 2 0.4238 -11.81563214445859 -10.800921160607539 -10.292995067570267 2 -10 9
436 146 1 -0.8476 -11.802315565149256 -11.76387750649609 -10.023683497116808 2 -10 9
437 146 2 0.4238 -11.642875938096784 -11.832376954059434 -9.0388602133451 2 -10 9
1154 385 2 0.4238 -11.907792171063834 -7.970045528497647 -11.740401001150687 5 14 -28
1140 380 2 0.4238 -7.988957124760531 -9.985322927089674 -11.671676395601741 1 -8 -2
119 40 2 0.4238 -9.454598090778097 -12.322940670586279 -10.57391997150507 15 16 -15
696 232 2 0.4238 -11.572007339045724 -11.700653446038729 -11.927484465629059 -6 3 9
224 75 2 0.4238 -10.541043094629494 -6.827830327898723 -11.199903079698572 5 10 -8
221 74 2 0.4238 -8.561953550051618 -8.750563021163325 -9.872401966629695 -1 -26 21
222 74 2 0.4238 -8.514927840227342 -10.13834700522461 -9.013074717972897 -1 -26 21
220 74 1 -0.8476 -8.53490863151713 -9.74831377933117 -9.933653305140231 -1 -26 21
691 231 1 -0.8476 -3.8787096237884544 -10.907782128724081 -7.241670876138988 10 -8 -2
875 292 2 0.4238 -3.025852243094521 -11.482933634491696 -11.755824117208391 3 13 -24
874 292 1 -0.8476 -2.04708239539619 -11.53183155893247 -11.556803799248069 3 13 -24
692 231 2 0.4238 -4.584606569576504 -10.409522163279988 -7.745095555651302 10 -8 -2
499 167 1 -0.8476 -1.9402495682601426 -11.877921536803987 -8.800425016065217 -18 14 8
1471 491 1 -0.8476 -4.6187213706604 -10.966451338617597 -12.04952134753144 3 0 -15
1449 483 2 0.4238 -0.3907032945390494 -11.138201576197346 -8.028209143957689 10 -4 6
1472 491 2 0.4238 -5.208094133043341 -11.376224907705911 -11.35330609664254 3 0 -15
693 231 2 0.4238 -3.255646712182454 -11.347552277652774 -7.8884978660499465 10 -8 -2
1231 411 1 -0.8476 -5.662878282106538 -9.190505481805047 -8.818938700474213 -5 -13 15
1199 400 2 0.4238 -2.3575642404116177 -6.995996576930654 -10.264634979452849 -6 18 -10
476 159 2 0.4238 -0.5277809266547138 -6.368279520670503 -7.50696400889524 18 -6 11
894 298 2 0.4238 -4.25627575718671 -8.821549275384363 -10.047865668516032 15 5 12
32 11 2 0.4238 -0.4234840836668514 -10.760911634563092 -12.241437356441846 13 1 3
892 298 1 -0.8476 -3.5879842480447586 -8.676945093925378 -10.777568787464263 15 5 12
893 298 2 0.4238 -3.544062444018314 -9.491777188285056 -11.355591168443834 15 5 12
353 118 2 0.4238 -4.601687468019221 -8.222478083451918 -12.05418130057554 -5 -7 2
500 167 2 0.4238 -1.67745846619402 -11.449595613227258 -9.664987206041314 -18 14 8
159 53 2 0.4238 -12.234772837902945 -1.6786024017326575 -12.325929745948319 -4 3 -4
642 214 2 0.4238 -7.13055387644137 -1.9410592904432686 -7.529870850818562 -12 4 7
640 214 1 -0.8476 -7.712597062177705 -2.73355175304901 -7.34774104390028 -12 4 7
807 269 2 0.4238 -6.808408851861008 -4.338446837907938 -6.393995153918175 -2 5 18
641 214 2 0.4238 -8.252145488814495 -2.9451518121441076 -8.16266608486874 -12 4 7
217 73 1 -0.8476 -11.999556046341723 -2.8696928538334348 -9.568671590547705 -14 -16 4
810 270 2 0.4238 -10.177154559594824 -3.9191386286136716 -6.539403126556101 -23 6 -1
248 83 2 0.4238 -9.259689791198603 -4.101834787072489 -9.90546915970488 -4 17 -8
249 83 2 0.4238 -10.332190059338727 -3.110959604371022 -9.174367855091528 -4 17 -8
247 83 1 -0.8476 -9.366087734932114 -3.250712709194717 -9.391406228668618 -4 17 -8
218 73 2 0.4238 -11.596261288829377 -2.0582443747415144 -9.99163112045986 -14 -16 4
899 300 2 0.4238 -10.470924462601989 -0.2433967526024201 -9.721439479015132 17 5 -8
898 300 1 -0.8476 -10.997870679954268 -0.4505051952081267 -10.545711117690585 17 5 -8
223 75 1 -0.8476 -10.111430602714735 -6.028370339864819 -10.780037431461666 5 10 -8
1128 376 2 0.4238 -12.142084472481873 -4.697457985946735 -9.140705094761202 14 -4 14
225 75 2 0.4238 -10.23762429721743 -5.232583388214134 -11.372311797222048 5 10 -8
96 32 2 0.4238 -8.304828524366284 -2.1821334633192677 -10.256879157068514 -10 -4 15
94 32 1 -0.8476 -7.846355182085823 -1.4355352218075765 -10.738940716533149 -10 -4 15
95 32 2 0.4238 -8.02863914410968 -0.5727214645400753 -10.267437911465962 -10 -4 15
746 249 2 0.4238 -9.632923257918105 -2.666784943130267 -12.120355584405772 1 -7 -8
745 249 1 -0.8476 -10.039208540150874 -3.579325255869069 -12.167178495167116 1 -7 -8
995 332 2 0.4238 -0.5090831945229866 -4.961862004400039 -10.485114047486466 -5 -4 6
645 215 2 0.4238 -2.2218050313888185 -0.31492494972752105 -6.345132769523809 -5 -2 23
671 224 2 0.4238 -5.754196479071807 -1.797698234303775 -10.484382368234673 3 4 19
670 224 1 -0.8476 -4.803820993297231 -2.014405977641509 -10.707573690384814 3 4 19
672 224 2 0.4238 -4.345912652053011 -2.3792391869517235 -9.896890741350369 3 4 19
643 215 1 -0.8476 -1.878100439105948 -1.0159644297918025 -6.969953670847886 -5 -2 23
644 215 2 0.4238 -1.3939459565284658 -1.7186828019556106 -6.448636823461719 -5 -2 23
344 115 2 0.4238 -5.033205462544471 -5.727420172907762 -9.48968026906311 5 -2 -19
701 234 2 0.4238 -3.781338775130042 -0.10839480197846108 -10.328858909782067 11 -8 -14
805 269 1 -0.8476 -6.1659163839464455 -5.087875240669537 -6.234150827468646 -2 5 18
1198 400 1 -0.8476 -1.9265777329732572 -6.14122151192283 -9.975498117079525 -6 18 -10
1200 400 2 0.4238 -2.0670434795567125 -6.012522565458878 -8.99381800599091 -6 18 -10
360 120 2 0.4238 -2.628668985995917 -5.205712194232577 -11.649951400600008 10 -16 3
343 115 1 -0.8476 -5.736453332441072 -5.729038634122478 -10.200615926148092 5 -2 -19
345 115 2 0.4238 -5.320070666004488 -5.956796856260483 -11.080810070831129 5 -2 -19
902 301 2 0.4238 -4.196895881007938 -3.9317661939353012 -7.96065850505488 9 19 -3
475 159 1 -0.8476 -1.3173580768833357 -5.787384551318493 -7.309176988057774 18 -6 11
477 159 2 0.4238 -1.0019876105945293 -4.890581859437148 -6.998892355855539 18 -6 11
1135 379 1 -0.8476 -5.44982631040763 -0.9602066820184572 -7.336613289721344 11 9 -3
1137 379 2 0.4238 -5.193725194586456 -1.2227210303746858 -6.406296983049962 11 9 -3
1136 379 2 0.4238 -4.808465541078615 -1.367981712787925 -7.986510031829981 11 9 -3
903 301 2 0.4238 -3.42816735917137 -2.5418669244413916 -7.581401217322141 9 19 -3
901 301 1 -0.8476 -3.96386429428358 -3.0137946100856325 -8.281617438110501 9 19 -3
663 221 2 0.4238 -4.680962866896414 -5.5034730234653795 -7.065660380680938 2 -11 7
661 221 1 -0.8476 -4.031948131794959 -5.693064644825033 -7.802426931574831 2 -11 7
662 221 2 0.4238 -3.129175430560153 -5.87508408395931 -7.412733970626025 2 -11 7
999 333 2 0.4238 -1.0928356360799913 -0.17738048361459846 -8.514873789344023 13 6 -1
730 244 1 -0.8476 -0.356535345858946 -1.9986512647473802 -12.340256502119697 -10 -2 -17
732 244 2 0.4238 -0.07788408085816556 -2.444415310835806 -11.489587435663408 -10 -2 -17
731 244 2 0.4238 -1.3189333875563882 -1.734199011543117 -12.278249937213342 -10 -2 -17
1432 478 1 -0.8476 -9.984860834246463 -6.95723357593178 -5.006673975124192 5 -12 9
1433 478 2 0.4238 -9.10391970994553 -7.039876513021433 -5.472616870693485 5 -12 9
633 211 2 0.4238 -7.586746471103752 -7.938586206890456 -1.4573533183348868 -4 -6 4
204 68 2 0.4238 -6.828674586531387 -11.828364211594899 -4.231526369824962 -7 14 -18
1095 365 2 0.4238 -10.263376532446973 -7.780493187112365 -3.007648615112865 6 -6 12
1093 365 1 -0.8476 -10.640208962848991 -8.441837935032055 -2.359103606270903 6 -6 12
203 68 2 0.4238 -8.39070984368157 -11.439748835372603 -4.506523347222522 -7 14 -18
631 211 1 -0.8476 -7.573487750281324 -6.944529219902863 -1.3493477533823217 -4 -6 4
822 274 2 0.4238 -7.387369563180785 -9.872460530990356 -1.1516205790775391 2 -2 17
1094 365 2 0.4238 -9.901888003018552 -8.816701298781432 -1.798434882549392 6 -6 12
632 211 2 0.4238 -7.900873955033008 -6.7041455066458155 -0.4355510363548376 -4 -6 4
821 274 2 0.4238 -8.190762214711357 -9.957725240404637 -2.5707363539036834 2 -2 17
820 274 1 -0.8476 -8.192120766178348 -9.557077225270966 -1.6545107825741354 2 -2 17
202 68 1 -0.8476 -7.442719635627709 -11.144719565595032 -4.625948861510805 -7 14 -18
1308 436 2 0.4238 -11.344908121092512 -9.322455733224817 -3.8713739505545313 14 6 0
1306 436 1 -0.8476 -11.233925948588153 -9.611635686187016 -4.822188566876926 14 6 0
1307 436 2 0.4238 -11.312405480640892 -8.816635198489722 -5.423691154831414 14 6 0
736 246 1 -0.8476 -9.99041598073987 -12.049286443271102 -4.321792303761011 -2 -3 5
738 246 2 0.4238 -10.425201177782121 -11.165271950343392 -4.493460634045873 -2 -3 5
402 134 2 0.4238 -4.066220507172199 -12.198906126757247 -2.697047989150228 -21 3 -23
401 134 2 0.4238 -3.3032905038832663 -12.067755764849682 -1.2592239346047123 -21 3 -23
1097 366 2 0.4238 -3.3960369616002737 -7.0745442823903595 -4.303952169265358 0 -35 -3
1096 366 1 -0.8476 -4.157400142732618 -6.431820343971685 -4.218967331144775 0 -35 -3
1220 407 2 0.4238 -4.364432681081464 -11.70212664278501 -5.189106081919766 1 -12 -13
1221 407 2 0.4238 -4.438324680443819 -10.889050434056811 -3.774876167047662 1 -12 -13
1228 410 1 -0.8476 -4.989677276032488 -9.55623264229958 -2.9591081014853664 11 -1 9
1229 410 2 0.4238 -5.434737810884865 -8.897534630069904 -3.5657620802064347 11 -1 9
1282 428 1 -0.8476 -1.8850523511399864 -7.658227110091435 -4.891088537790721 0 -5 11
1022 341 2 0.4238 -1.4961618199609408 -6.333825480315902 -3.92914770261884 14 10 15
1283 428 2 0.4238 -1.6300316741951288 -7.274265281725675 -5.778516319268622 0 -5 11
1284 428 2 0.4238 -1.595851799634703 -8.6144335824456 -4.8461103247270785 0 -5 11
285 95 2 0.4238 -5.024058565322006 -7.081240797120915 -1.21437038669678 -3 8 10
283 95 1 -0.8476 -4.653251181756207 -7.95834888576221 -0.90912656291699 -3 8 10
284 95 2 0.4238 -5.37663396347145 -8.49150811221558 -0.4704367828452707 -3 8 10
1219 407 1 -0.8476 -4.202105602046668 -11.760796137402926 -4.204119914728265 1 -12 -13
1230 410 2 0.4238 -4.818982874054533 -9.129129919259663 -2.071168154178478 11 -1 9
416 139 2 0.4238 -1.7625378619758294 -7.085631911298485 -1.9811587869268337 11 3 -19
417 139 2 0.4238 -2.997665136053076 -7.705661962911899 -1.1113183870692165 11 3 -19
1196 399 2 0.4238 -0.8398066326016753 -10.8696384454637 -0.871671016914572 12 -16 -5
415 139 1 -0.8476 -2.0039274829422773 -7.606228684172464 -1.162196113084697 11 3 -19
650 217 2 0.4238 -1.3470605012487393 -11.135874328640188 -4.567163035189834 -6 2 -6
651 217 2 0.4238 -2.287441566675936 -10.485440850458625 -5.7330188961234745 -6 2 -6
649 217 1 -0.8476 -1.6507780632861806 -10.281728555002317 -4.989277770838417 -6 2 -6
1195 399 1 -0.8476 -1.258445540462784 -11.636586571857638 -0.3853351988866791 12 -16 -5
707 236 2 0.4238 -7.969721757609964 -4.499600750522606 -2.895659388949662 14 10 16
1434 478 2 0.4238 -10.349710078932002 -6.036423914349117 -5.144457848252258 5 -12 9
1406 469 2 0.4238 -8.768836025056672 -2.230008411737792 -5.981655037581389 2 -2 -8
1237 413 1 -0.8476 -6.69212086022643 -5.5420691488256235 -3.5050897108872654 -14 -18 12
897 299 2 0.4238 -11.182022387748198 -0.25121236873109254 -1.512102425646761 -7 7 1
1239 413 2 0.4238 -7.0341153423748235 -6.082350708609515 -2.736241980342875 -14 -18 12
708 236 2 0.4238 -8.712546503192677 -3.1807252177453638 -3.5083402969615882 14 10 16
706 236 1 -0.8476 -8.677166687296047 -3.811724305623706 -2.733370211611785 14 10 16
1407 469 2 0.4238 -9.234798626100197 -0.9152826751607783 -5.132553066993518 2 -2 -8
1405 469 1 -0.8476 -9.006415100997184 -1.8870175337432435 -5.0728623849647745 2 -2 -8
1394 465 2 0.4238 -6.814383032504309 -0.029682207432609076 -3.6921342916892606 9 3 15
806 269 2 0.4238 -6.573627527699018 -5.747491563997101 -5.602748597844289 -2 5 18
1393 465 1 -0.8476 -6.850608579209533 -1.0275094616331906 -3.6371903465754585 9 3 15
809 270 2 0.4238 -11.434923829941631 -4.109925052869967 -5.515578736363118 -23 6 -1
1123 375 1 -0.8476 -11.462075914635347 -4.730727016555503 -2.511668745178193 -9 6 -19
1124 375 2 0.4238 -10.506000545598813 -4.470056863341422 -2.3776502057251303 -9 6 -19
1125 375 2 0.4238 -11.891429412235011 -4.891534179614845 -1.6229693114246118 -9 6 -19
808 270 1 -0.8476 -10.828751142569718 -4.576011729153051 -6.160022734527682 -23 6 -1
1067 356 2 0.4238 -12.212541111795929 -3.328772356413582 -3.7745071824165564 1 3 -9
635 212 2 0.4238 -9.35512729465603 -3.0254650914364802 -1.2508563479375283 0 -10 6
869 290 2 0.4238 -11.205631015832562 -2.062666859844038 -0.3149354822698829 14 -2 -11
634 212 1 -0.8476 -9.542417479447236 -2.603286474429977 -0.36390740383946607 0 -10 6
868 290 1 -0.8476 -12.111408933356785 -1.6391173374896475 -0.32769038596516253 14 -2 -11
1395 465 2 0.4238 -7.696898890812424 -1.3540001379778825 -4.058127480962481 9 3 15
1361 454 2 0.4238 -12.280422937194894 -6.097998866841012 -3.411316747871572 10 6 -9
1190 397 2 0.4238 -2.607268019600191 -0.3211057980087304 -2.1885444943606203 5 -32 0
1327 443 1 -0.8476 -4.457122092709312 -1.5933959490284995 -4.884447197505405 -9 1 7
1329 443 2 0.4238 -3.9444477049260183 -0.8148215386375313 -4.522539197132453 -9 1 7
1328 443 2 0.4238 -5.296276919996157 -1.7153154314937566 -4.354404589613978 -9 1 7
1189 397 1 -0.8476 -3.345059112409025 -0.03873675689531808 -2.8016690592300826 5 -32 0
122 41 2 0.4238 -3.3899533646874733 -4.2192520593138685 -2.6998293779649227 5 -2 -6
1098 366 2 0.4238 -3.9056941243400782 -5.559610261572011 -4.638352378169742 0 -35 -3
465 155 2 0.4238 -4.0557320259065754 -3.556882961228288 -0.4975375149171999 29 -9 -14
1238 413 2 0.4238 -5.793476406211048 -5.884372560961838 -3.779419500391745 -14 -18 12
1023 341 2 0.4238 -0.5835269988848122 -5.015022867009808 -3.6218067978428845 14 10 15
1021 341 1 -0.8476 -1.1770641819990342 -5.709898836648614 -3.2157874420918766 14 10 15
47 16 2 0.4238 -0.3544302740182541 -5.059347515601089 -1.7770095174128997 12 6 -14
48 16 2 0.4238 -0.6293671362963078 -4.6580839117433035 -0.21816493213958132 12 6 -14
769 257 1 -0.8476 -1.9782235679456495 -0.9025033808654737 -0.3539800887367299 7 12 3
771 257 2 0.4238 -1.1183380961475127 -1.2901140210509041 -0.6861627589275745 7 12 3
770 257 2 0.4238 -2.574384310450423 -1.6390148208837694 -0.03439637439404564 7 12 3
586 196 1 -0.8476 -3.2039734305562266 -3.995105646648513 -4.8576541950067424 -5 18 5
587 196 2 0.4238 -3.7605530291833418 -3.164350295247081 -4.865040693652173 -5 18 5
588 196 2 0.4238 -2.2875387021071454 -3.7853666036392806 -5.198457167906007 -5 18 5
7 3 1 -0.8476 -5.985920111130956 -1.7648570524837304 -1.0860479574595363 2 -5 10
8 3 2 0.4238 -6.156565001420221 -1.6366871983873086 -2.063003677450812 2 -5 10
123 41 2 0.4238 -4.93665460544675 -4.613475855281465 -2.355006187924298 5 -2 -6
121 41 1 -0.8476 -4.031973625757029 -4.440302994643766 -1.9657066510175945 5 -2 -6
9 3 2 0.4238 -5.0228277320795405 -1.9928554050783234 -0.9430112960492014 2 -5 10
845 282 2 0.4238 -11.976870435337373 -10.01983515547937 1.8074165064251027 0 -1 3
1053 351 2 0.4238 -6.469869849262362 -9.563434226004638 1.4005998743937145 1 11 -19
1051 351 1 -0.8476 -6.20714444838082 -9.82781644369906 0.4726625798411188 1 11 -19
1052 351 2 0.4238 -6.344424376486738 -10.81130774995979 0.3548110023134612 1 11 -19
164 55 2 0.4238 -9.97712468679272 -8.642524315268526 4.5956142738163965 -8 -2 -3
457 153 1 -0.8476 -6.612191671653437 -8.820049015146814 2.9026953606748247 -5 -2 -2
915 305 2 0.4238 -7.438062314853386 -7.511825146954661 1.9735492190406525 7 7 9
597 199 2 0.4238 -11.658621193895726 -8.497405525726114 0.09697768994021416 -4 -3 7
165 55 2 0.4238 -10.55354417404481 -8.97435668267169 3.1042300258715123 -8 -2 -3
163 55 1 -0.8476 -10.78189241504566 -8.93098489631792 4.076837774415962 -8 -2 -3
458 153 2 0.4238 -6.834000895113449 -9.173265535910735 3.8115566876775286 -5 -2 -2
238 80 1 -0.8476 -10.15916613414333 -8.654740805609482 1.044773634074561 14 21 14
240 80 2 0.4238 -9.833568311576856 -9.528270759440737 1.4066041328067183 14 21 14
239 80 2 0.4238 -9.43378311951135 -7.970761397943863 1.1221128170930381 14 21 14
609 203 2 0.4238 -12.242151703176269 -11.963146788778616 0.18871938022172507 1 23 3
1514 0 4 -1 -7.786763301205892 -10.202537684274974 6.0925478246387375 -3 -1 -13
1367 456 2 0.4238 -11.116159022086872 -11.397805752360595 5.1449389389986155 3 -3 -6
304 102 1 -0.8476 -7.382290688290593 -12.266237913392539 0.465636682514285 9 -11 -1
1366 456 1 -0.8476 -10.342035934233278 -11.839892655594914 5.598020360677021 3 -3 -6
913 305 1 -0.8476 -7.790657161423803 -6.74207840519516 1.4414244727150844 7 7 9
553 185 1 -0.8476 -8.910762658314212 -10.655937534023806 2.119509094967688 2 12 3
864 288 2 0.4238 -7.275839710978476 -12.25460805066245 5.3622971685578715 5 -14 22
555 185 2 0.4238 -8.535747407445085 -10.915478613812182 3.0094483460546364 2 12 3
554 185 2 0.4238 -8.369991677587306 -11.080418857884029 1.393305176832781 2 12 3
1368 456 2 0.4238 -9.702188122318947 -11.142514768045244 5.920900403591331 3 -3 -6
1286 429 2 0.4238 -4.128918389844335 -6.502304262643236 3.5471756763616913 0 18 14
1145 382 2 0.4238 -0.4563074738909396 -6.893204222804686 2.581360711805182 20 -10 8
781 261 1 -0.8476 -1.4851613134496464 -7.043320079844141 1.3015960389591612 23 -5 20
782 261 2 0.4238 -1.7986484160707263 -7.358544580716616 0.4058565323175145 23 -5 20
459 153 2 0.4238 -5.660548659663578 -8.51323801682894 2.887449946355215 -5 -2 -2
704 235 2 0.4238 -4.343645768341968 -11.689195316150851 3.225833916213361 -4 8 14
1325 442 2 0.4238 -3.2888803111176017 -8.270010000285717 3.50945367314673 17 0 -2
1087 363 1 -0.8476 -0.6709881234090762 -10.292144883937713 5.462655679114489 11 28 7
1088 363 2 0.4238 -0.05237232957821192 -9.55199289069832 5.72624587609223 11 28 7
1089 363 2 0.4238 -0.15192682587509587 -11.012408691546936 5.002453596126843 11 28 7
1324 442 1 -0.8476 -3.764822502073155 -7.926780004082279 2.6997240295530176 17 0 -2
1326 442 2 0.4238 -3.132160598964804 -7.904625491122544 1.9256187728804726 17 0 -2
1197 399 2 0.4238 -0.5913775005772912 -12.036870589847103 0.24298216122756777 12 -16 -5
1157 386 2 0.4238 -3.6828349213432325 -9.525938875847702 5.823496465370669 19 -24 4
1158 386 2 0.4238 -2.1756373541592993 -9.476036444491136 5.197026534320555 19 -24 4
1156 386 1 -0.8476 -3.0990756726028437 -9.097548737694623 5.133788557915361 19 -24 4
636 212 2 0.4238 -9.229797900745584 -3.21020205928283 0.3667857265148182 0 -10 6
455 152 2 0.4238 -6.3850531663127 -0.252191892433105 2.5959822972309805 26 9 0
335 112 2 0.4238 -9.771862141533896 -4.986289850440612 5.663088977665515 4 -10 -11
749 250 2 0.4238 -7.544739912634338 -0.21203457039773177 4.530301718970707 -2 7 -13
750 250 2 0.4238 -9.152444753832532 -0.08594184250894976 4.2734261760634045 -2 7 -13
334 112 1 -0.8476 -10.512821383700429 -5.0510501254046 4.994676324267397 4 -10 -11
1001 334 2 0.4238 -7.310214048428373 -4.593887477834895 3.842327466094078 1 -9 -26
1002 334 2 0.4238 -7.111435519911487 -5.57314314727423 5.133894688833232 1 -9 -26
1513 0 4 -1 -8.645788742534844 -3.8922030062233812 2.55704111479049 3 11 7
336 112 2 0.4238 -10.14002920996856 -4.946693001787543 4.072653799065355 4 -10 -11
1000 334 1 -0.8476 -6.659869368911321 -5.1692462960354995 4.338315995493277 1 -9 -26
653 218 2 0.4238 -6.356449931494307 -3.7690185056010144 5.171267874994362 15 10 -8
652 218 1 -0.8476 -6.349987091404047 -2.8025013929437037 5.427768582109367 15 10 -8
615 205 2 0.4238 -6.444394760171705 -3.2236796979741964 2.358626976769491 8 9 1
180 60 2 0.4238 -11.878647205748761 -4.8209795970897895 3.3085715227590367 1 -13 10
1059 353 2 0.4238 -12.23762025555696 -0.5032970594415165 5.440939557317561 1 -17 18
1016 339 2 0.4238 -6.618732890650182 -1.4717266639201743 0.7272686376769251 -15 -8 15
1015 339 1 -0.8476 -7.285634197254614 -1.0689120744215437 1.3541446118214022 -15 -8 15
1017 339 2 0.4238 -7.861481493169707 -1.791118028989505 1.737301039356261 -15 -8 15
719 240 2 0.4238 -10.962388734481065 -0.6872108407002919 2.642680647601516 3 -6 7
132 44 2 0.4238 -12.02882773102487 -4.732908381537597 5.572751109001883 10 4 19
980 327 2 0.4238 -9.676931979536628 -2.224078448544647 3.6514851598041265 -2 -9 -4
981 327 2 0.4238 -11.019447783951142 -1.994682543788814 4.552390215424468 -2 -9 -4
914 305 2 0.4238 -7.659312778215957 -5.8940190636829195 1.9547804490204257 7 7 9
720 240 2 0.4238 -11.826324247424393 -0.27843216393391934 1.3186283673179364 3 -6 7
718 240 1 -0.8476 -11.736813830613862 -0.15128966435355018 2.3064605281117885 3 -6 7
979 327 1 -0.8476 -10.29089920345598 -1.538027002478266 4.041828533366337 -2 -9 -4
1285 429 1 -0.8476 -4.246943970319684 -5.512938998664647 3.632122991485973 0 18 14
1287 429 2 0.4238 -5.206751067963235 -5.306907080815351 3.822678024682526 0 18 14
1049 350 2 0.4238 -3.0881837775794487 -4.7799971530049294 4.864977174887672 -17 8 -3
783 261 2 0.4238 -1.579209654835342 -6.049289313872421 1.3568015880792927 23 -5 20
246 82 2 0.4238 -1.3622876530198216 -0.36640149583883996 4.472354625318269 1 13 -3
1048 350 1 -0.8476 -2.3536448599201307 -4.369356536015806 5.405178280360291 -17 8 -3
1050 350 2 0.4238 -1.5712768209639574 -4.177625603462815 4.812616424914134 -17 8 -3
244 82 1 -0.8476 -0.45764462277514717 -0.23327071739443106 4.877185602506701 1 13 -3
245 82 2 0.4238 -0.26647388911115577 -0.9768921737508194 5.517865476144733 1 13 -3
664 222 1 -0.8476 -2.8682880024933475 -1.798620074206994 4.674067567155047 -6 -1 13
666 222 2 0.4238 -2.7285354431640503 -2.521518048381152 5.350734420274444 -6 -1 13
654 218 2 0.4238 -5.717406519355087 -2.3044679760306277 4.834646159801496 15 10 -8
665 222 2 0.4238 -3.45879071171308 -2.1373566676337745 3.941568799219864 -6 -1 13
614 205 2 0.4238 -5.054505334593004 -4.063552779223103 2.530149906426198 8 9 1
613 205 1 -0.8476 -5.448189875901761 -3.177654592051594 2.2848201527737206 8 9 1
1264 422 1 -0.8476 -1.638647936053978 -4.496790554493997 1.1457937795489581 0 7 -7
125 42 2 0.4238 -3.5434101030225627 -0.5347034695805597 5.741704135969213 -19 8 11
793 265 1 -0.8476 -0.04403458613518829 -3.7123786890175055 3.3451805036998987 -9 21 -4
795 265 2 0.4238 -0.2730618658886552 -2.8272035775259496 2.940209199734097 -9 21 -4
1265 422 2 0.4238 -2.403793859739759 -3.9635562307786447 0.7849573105156136 0 7 -7
1266 422 2 0.4238 -1.4136981083338487 -4.176397134295165 2.0659762215752373 0 7 -7
463 155 1 -0.8476 -3.809869127211501 -2.982977509742593 0.2835992252933419 29 -9 -14
74 25 2 0.4238 -1.158072980979382 -1.3298453417410325 1.2846891957951652 -5 7 -5
464 155 2 0.4238 -4.491976647038703 -3.0937843566459904 1.0064005736639015 29 -9 -14
75 25 2 0.4238 -0.1430939910061788 -0.7604435477514198 2.430201465931832 -5 7 -5
73 25 1 -0.8476 -0.8653972387069047 -1.4242512043199138 2.2362238500086224 -5 7 -5
1155 385 2 0.4238 -11.204762458402216 -8.067589092671355 11.536751848482416 5 14 -29
1344 448 2 0.4238 -9.926006016671549 -8.30937428351302 7.821936971184693 -7 13 0
694 232 1 -0.8476 -11.25308712683219 -11.938760591938454 11.902946195420485 -6 3 8
405 135 2 0.4238 -6.281487920973063 -7.188063959695339 6.7035620334240935 -1 1 15
1343 448 2 0.4238 -8.770130842485873 -9.456744287278898 7.7032111655150235 -7 13 0
422 141 2 0.4238 -6.253404654960357 -11.51550796736414 9.501361330233584 -22 -15 -24
1342 448 1 -0.8476 -9.490654583233951 -9.08085584661527 8.285915105376448 -7 13 0
695 232 2 0.4238 -10.64583496567309 -11.220093985321052 11.56419405404832 -6 3 8
1138 380 1 -0.8476 -7.559886157557041 -9.902777895430303 12.176648632745321 1 -8 -3
1139 380 2 0.4238 -7.481766604443551 -10.808584508708783 11.760232105783286 1 -8 -3
1153 385 1 -0.8476 -11.730156874137315 -7.481231522353506 12.153303222751626 5 14 -29
489 163 2 0.4238 -11.054822843364438 -12.366501317127083 7.140450397152742 5 6 -3
320 107 2 0.4238 -9.318077349514274 -9.380316605825378 11.592434503843874 -12 -9 -1
1340 447 2 0.4238 -11.699510096206788 -10.979458284805391 8.648889741333177 -7 0 -18
255 85 2 0.4238 -12.28965477641371 -8.257159005421187 7.031366524389464 -6 -18 1
319 107 1 -0.8476 -10.098051325954717 -9.585214523019085 11.00112482504643 -12 -9 -1
951 317 2 0.4238 -11.236288238679556 -6.224732369672141 7.815155359320167 -12 9 -11
321 107 2 0.4238 -9.809023780788344 -9.551203464193668 10.044413710064154 -12 -9 -1
950 317 2 0.4238 -10.849543501714097 -6.549552393280614 6.262248599852748 -12 9 -11
403 135 1 -0.8476 -7.21800684302494 -7.066395612871128 6.374746759378636 -1 1 15
404 135 2 0.4238 -7.647042790312939 -7.961287244004015 6.251915583505648 -1 1 15
1341 447 2 0.4238 -11.570965902395566 -10.063481961970556 9.994647405975497 -7 0 -18
1185 395 2 0.4238 -7.569637415314715 -11.764316862853121 7.8796876591322285 1 -2 -28
1339 447 1 -0.8476 -12.19335991864328 -10.380056479486418 9.278828517759306 -7 0 -18
949 317 1 -0.8476 -11.161468321910894 -6.945419167900533 7.125951167594023 -12 9 -11
423 141 2 0.4238 -4.632883519319554 -11.60676907438894 9.680754715270785 -22 -15 -24
1133 378 2 0.4238 -4.24462988880607 -7.723261406918604 8.44120152456559 -4 6 -20
945 315 2 0.4238 -5.6923007669204235 -10.065655701362964 6.776134550224489 -8 11 -3
943 315 1 -0.8476 -4.775256763604317 -10.219905031276529 7.143867261194538 -8 11 -3
944 315 2 0.4238 -4.737298258886341 -9.898989898813618 8.09020902502523 -8 11 -3
1134 378 2 0.4238 -3.418521651004701 -7.460237937890186 7.05737848361426 -4 6 -20
539 180 2 0.4238 -1.4593446525729004 -7.399172797180451 9.621612472175174 -14 -8 -5
1132 378 1 -0.8476 -4.134176902012987 -7.108115786182457 7.660569858163358 -4 6 -20
421 141 1 -0.8476 -5.469555613205074 -11.179717168590953 10.0236788970825 -22 -15 -24
1025 342 2 0.4238 -0.9694613380909907 -11.669641777007163 8.847207107817459 -10 4 -22
1024 342 1 -0.8476 -0.803750477043879 -10.90887885716006 8.219696427856904 -10 4 -22
1428 476 2 0.4238 -3.3980680901399776 -8.917713879933977 9.897051670025364 -3 11 -20
1427 476 2 0.4238 -4.91254412846451 -9.518173259439848 10.008453072386969 -3 11 -20
1426 476 1 -0.8476 -4.3232028147972965 -8.874788701150523 9.519859417095207 -3 11 -20
1026 342 2 0.4238 -0.8150419585863986 -11.245067287836422 7.277974682559806 -10 4 -22
31 11 1 -0.8476 -0.05608959001766678 -10.010917369847448 11.956354862684146 13 1 2
354 118 2 0.4238 -6.153696630336177 -8.499398446992656 12.267974783447896 -5 -7 1
352 118 1 -0.8476 -5.397658167950057 -7.846709504228554 12.219057329305263 -5 -7 1
767 256 2 0.4238 -5.323138559678221 -6.2556814983788716 11.234486315524629 3 -5 7
538 180 1 -0.8476 -1.3615499640416466 -6.433732932844613 9.863173633166655 -14 -8 -5
953 318 2 0.4238 -4.015824315340794 -12.283456898054608 6.559938821296631 -1 -15 -10
1473 491 2 0.4238 -5.1209667087665 -10.894805938992906 11.83654261794698 3 0 -16
1003 335 1 -0.8476 -1.7805274767497163 -9.182339608672581 9.93263940886438 -14 -5 -4
1004 335 2 0.4238 -1.2313640410128155 -9.244305826894944 10.76604791268574 -14 -5 -4
1005 335 2 0.4238 -1.5330767223200912 -9.928184212076857 9.314194222829203 -14 -5 -4