
group   solvent type 1
5000 atoms in group solvent
group   water   empty
0 atoms in group water
group   ions    type 2 3
202 atoms in group ions
group   wall    type 4 5
0 atoms in group wall
group   flying  type 6 7 8
0 atoms in group flying
group   eq_run  union solvent ions flying
5202 atoms in group eq_run
            
######################################################################
pair_style   lj/cut/coul/long 2.500000 3.500000
kspace_style pppm 0.0001

# LJ (neq? False)
# real lj particles
pair_coeff  * *         1.  1.  2.5   # solvent + ions
pair_coeff  4*5 4*5     0   0   2.5   # wall atoms

        
pair_modify  tail no shift yes mix arithmetic # LB mixing rule
neigh_modify delay 2 every 1 check yes page 500000 one 50000
######################################################################
timestep 0.005000
thermo 2000
fix  eqmd   eq_run nvt temp 1.000000 1.000000 0.500000
run 400 # (neq? False) MD run
PPPM initialization ...
  using 12-bit tables for long-range coulomb (../kspace.cpp:340)
  G vector (1/distance) = 0.80673798
  grid = 36 36 36
  stencil order = 5
  estimated absolute RMS force accuracy = 8.2278886e-05
  estimated relative force accuracy = 8.2278886e-05
  using single precision KISS FFT
  3d grid and FFT values/proc = 4913 2592
Per MPI rank memory allocation (min/avg/max) = 5.425 | 5.447 | 5.490 Mbytes
Step Temp Atoms Density TotEng PotEng KinEng E_coul E_vdwl E_long Enthalpy Press 
   11200     1.009180     5202     0.752298 -15604.445472 -23477.562103  7873.116632   -54.184568 -23121.467752  -301.909783 -8545.585770     1.020832 
   11600     0.994067     5202     0.752298 -15628.627766 -23383.838987  7755.211220   -61.774267 -23012.855386  -309.209334 -8358.242709     1.051422 
Loop time of 1.17818 on 27 procs for 400 steps with 5202 atoms

Performance: 146666.546 tau/day, 339.506 timesteps/s
92.9% CPU use with 27 MPI tasks x no OpenMP threads

MPI task timing breakdown:
Section |  min time  |  avg time  |  max time  |%varavg| %total
---------------------------------------------------------------
Pair    | 0.23234    | 0.37279    | 0.42848    |  10.3 | 31.64
Kspace  | 0.63194    | 0.69042    | 0.82725    |   7.3 | 58.60
Neigh   | 0.033123   | 0.04788    | 0.058371   |   3.0 |  4.06
Comm    | 0.048587   | 0.055362   | 0.072498   |   3.4 |  4.70
Output  | 5.1843e-05 | 5.7776e-05 | 0.00018212 |   0.0 |  0.00
Modify  | 0.0055795  | 0.0076434  | 0.010259   |   1.6 |  0.65
Other   |            | 0.004022   |            |       |  0.34

Nlocal:        192.667 ave         205 max         181 min
Histogram: 2 0 3 5 6 3 2 2 3 1
Nghost:        1848.22 ave        1865 max        1829 min
Histogram: 2 3 0 4 2 3 4 5 2 2
Neighs:        16520.1 ave       17942 max       15297 min
Histogram: 2 3 2 5 2 6 3 1 1 2

Total # of neighbors = 446042
Ave neighs/atom = 85.744329
Neighbor list builds = 56
Dangerous builds = 0
unfix    eqmd

group   solvent type 1
5000 atoms in group solvent
group   water   empty
0 atoms in group water
group   ions    type 2 3
202 atoms in group ions
group   wall    type 4 5
0 atoms in group wall
group   flying  type 6 7 8
0 atoms in group flying
group   eq_run  union solvent ions flying
5202 atoms in group eq_run
            
######################################################################
pair_style   lj/cut/coul/long 2.500000 3.500000
kspace_style pppm 0.0001

# LJ (neq? False)
# real lj particles
pair_coeff  * *         1.  1.  2.5   # solvent + ions
pair_coeff  4*5 4*5     0   0   2.5   # wall atoms

        
pair_modify  tail no shift yes mix arithmetic # LB mixing rule
neigh_modify delay 2 every 1 check yes page 500000 one 50000
######################################################################
# shake is off; should be a dummy run
timestep 0.005000
thermo 2000
fix  eqmd   eq_run nvt temp 1.000000 1.000000 0.500000
run 0 # (neq? False) MD run
PPPM initialization ...
  using 12-bit tables for long-range coulomb (../kspace.cpp:340)
  G vector (1/distance) = 0.80673798
  grid = 36 36 36
  stencil order = 5
  estimated absolute RMS force accuracy = 8.2278886e-05
  estimated relative force accuracy = 8.2278886e-05
  using single precision KISS FFT
  3d grid and FFT values/proc = 4913 2592
Per MPI rank memory allocation (min/avg/max) = 5.425 | 5.447 | 5.490 Mbytes
Step Temp Atoms Density TotEng PotEng KinEng E_coul E_vdwl E_long Enthalpy Press 
   11600     0.994067     5202     0.752298 -15628.627766 -23383.838987  7755.211220   -61.774267 -23012.855386  -309.209334 -8358.242709     1.051422 
Loop time of 2.73581e-06 on 27 procs for 0 steps with 5202 atoms

93.4% CPU use with 27 MPI tasks x no OpenMP threads

MPI task timing breakdown:
Section |  min time  |  avg time  |  max time  |%varavg| %total
---------------------------------------------------------------
Pair    | 0          | 0          | 0          |   0.0 |  0.00
Kspace  | 0          | 0          | 0          |   0.0 |  0.00
Neigh   | 0          | 0          | 0          |   0.0 |  0.00
Comm    | 0          | 0          | 0          |   0.0 |  0.00
Output  | 0          | 0          | 0          |   0.0 |  0.00
Modify  | 0          | 0          | 0          |   0.0 |  0.00
Other   |            | 2.736e-06  |            |       |100.00

Nlocal:        192.667 ave         208 max         181 min
Histogram: 1 2 6 3 7 4 0 3 0 1
Nghost:        1847.89 ave        1870 max        1824 min
Histogram: 1 3 0 3 4 6 4 3 1 2
Neighs:        16524.0 ave       18140 max       15520 min
Histogram: 4 3 5 3 2 6 1 0 2 1

Total # of neighbors = 446147
Ave neighs/atom = 85.764514
Neighbor list builds = 0
Dangerous builds = 0
unfix    eqmd
#chosen_cation deletion_move 7.664756 -2.622016 7.788610 # select_molecule
#chosen_anion deletion_move 5.905630 -1.039716 8.076922 # select_molecule
# selected_velocity_salt 5030 cation vel 2.320908 -1.065915 0.266060
# selected_velocity_salt 5156 anion vel -1.930906 0.546332 -1.481410
group widom_test id  5030 5156 # select_molecule
2 atoms in group widom_test
set atom 5030 type 7
Setting atom values ...
  1 settings made for type
set atom 5156 type 8
Setting atom values ...
  1 settings made for type
run 0 post no # done selecting a flying molecule
PPPM initialization ...
  using 12-bit tables for long-range coulomb (../kspace.cpp:340)
  G vector (1/distance) = 0.80673798
  grid = 36 36 36
  stencil order = 5
  estimated absolute RMS force accuracy = 8.2278886e-05
  estimated relative force accuracy = 8.2278886e-05
  using single precision KISS FFT
  3d grid and FFT values/proc = 4913 2592
Per MPI rank memory allocation (min/avg/max) = 5.425 | 5.447 | 5.490 Mbytes
Step Temp Atoms Density TotEng PotEng KinEng E_coul E_vdwl E_long Enthalpy Press 
   11600     0.994067     5202     0.752298 -15628.627766 -23383.838987  7755.211220   -61.774267 -23012.855386  -309.209334 -8358.242709     1.051422 
Loop time of 2.83026e-06 on 27 procs for 0 steps with 5202 atoms

group noneq_run_rigid    intersect   all         water               # select_salt no selection
0 atoms in group noneq_run_rigid
group noneq_run_pre      subtract    all         noneq_run_rigid     # select_salt no selection
5202 atoms in group noneq_run_pre
group noneq_run          subtract    noneq_run_pre   widom_test      # select_salt no selection
5200 atoms in group noneq_run
group noneq_run_pre      delete
run 0 post no # mom rev random number
PPPM initialization ...
  using 12-bit tables for long-range coulomb (../kspace.cpp:340)
  G vector (1/distance) = 0.80673798
  grid = 36 36 36
  stencil order = 5
  estimated absolute RMS force accuracy = 8.2278886e-05
  estimated relative force accuracy = 8.2278886e-05
  using single precision KISS FFT
  3d grid and FFT values/proc = 4913 2592
Per MPI rank memory allocation (min/avg/max) = 5.425 | 5.447 | 5.490 Mbytes
Step Temp Atoms Density TotEng PotEng KinEng E_coul E_vdwl E_long Enthalpy Press 
   11600     0.994067     5202     0.752298 -15628.627766 -23383.838987  7755.211220   -61.774267 -23012.855386  -309.209334 -8358.242709     1.051422 
Loop time of 2.76944e-06 on 27 procs for 0 steps with 5202 atoms

######################################################################
pair_style   lj/cut/coul/long/neq 2.500000 3.500000 11600 100 1.000000 5 0 0 1.000000 1.000000 11 1.000000
kspace_style pppm 0.0001

# LJ (neq? True)
# real lj particles
pair_coeff  * *         1.  1.  2.5   # solvent + ions
pair_coeff  4*5 4*5     0   0   2.5   # wall atoms

        
pair_modify  tail no shift yes mix arithmetic # LB mixing rule
neigh_modify delay 2 every 1 check yes page 500000 one 50000
######################################################################
timestep 0.010000
fix  eqmd  noneq_run           nve                 # nve for non-rigid
run 100 # (neq? True) MD run
PPPM initialization ...
  using 12-bit tables for long-range coulomb (../kspace.cpp:340)
  G vector (1/distance) = 0.80673798
  grid = 36 36 36
  stencil order = 5
  estimated absolute RMS force accuracy = 8.2278886e-05
  estimated relative force accuracy = 8.2278886e-05
  using single precision KISS FFT
  3d grid and FFT values/proc = 4913 2592
Neighbor list info ...
  update every 1 steps, delay 2 steps, check yes
  max neighbors/atom: 50000, page size: 500000
  master list distance cutoff = 3.8
  ghost atom cutoff = 3.8
  binsize = 1.9, bins = 11 11 11
  1 neighbor lists, perpetual/occasional/extra = 1 0 0
  (1) pair lj/cut/coul/long/neq, perpetual
      attributes: half, newton on
      pair build: half/bin/atomonly/newton
      stencil: half/bin/3d
      bin: standard
Per MPI rank memory allocation (min/avg/max) = 5.425 | 5.447 | 5.490 Mbytes
Step Temp Atoms Density TotEng PotEng KinEng E_coul E_vdwl E_long Enthalpy Press 
   11600     0.994067     5202     0.752298 -15628.627766 -23383.838987  7755.211220   -61.774267 -23012.855386  -309.209334 -8358.242709     1.051422 
   11700     0.997171     5202     0.752298 -15628.809675 -23408.242593  7779.432918   -62.192288 -23029.773321  -316.276983 -8347.674718     1.052977 
Loop time of 0.307935 on 27 procs for 100 steps with 5202 atoms

Performance: 280578.895 tau/day, 324.744 timesteps/s
93.3% CPU use with 27 MPI tasks x no OpenMP threads

MPI task timing breakdown:
Section |  min time  |  avg time  |  max time  |%varavg| %total
---------------------------------------------------------------
Pair    | 0.05819    | 0.095556   | 0.11232    |   5.4 | 31.03
Kspace  | 0.15637    | 0.17364    | 0.21339    |   4.2 | 56.39
Neigh   | 0.014114   | 0.021148   | 0.024436   |   2.1 |  6.87
Comm    | 0.013521   | 0.015497   | 0.020162   |   1.7 |  5.03
Output  | 5.3077e-05 | 6.3058e-05 | 0.00018119 |   0.0 |  0.02
Modify  | 0.00032916 | 0.00052123 | 0.00061439 |   0.0 |  0.17
Other   |            | 0.001511   |            |       |  0.49

Nlocal:        192.667 ave         206 max         182 min
Histogram: 3 0 4 4 5 5 2 2 1 1
Nghost:        1849.96 ave        1873 max        1814 min
Histogram: 1 0 1 4 1 4 6 6 2 2
Neighs:        16521.7 ave       18409 max       15177 min
Histogram: 3 3 4 1 6 4 3 1 1 1

Total # of neighbors = 446087
Ave neighs/atom = 85.752980
Neighbor list builds = 25
Dangerous builds = 0
unfix    eqmd

group   solvent type 1
5000 atoms in group solvent
group   water   empty
0 atoms in group water
group   ions    type 2 3
202 atoms in group ions
group   wall    type 4 5
0 atoms in group wall
group   flying  type 6 7 8
2 atoms in group flying
group   eq_run  union solvent ions flying
5202 atoms in group eq_run
            
######################################################################
pair_style   lj/cut/coul/long 2.500000 3.500000
kspace_style pppm 0.0001

# LJ (neq? False)
# real lj particles
pair_coeff  * *         1.  1.  2.5   # solvent + ions
pair_coeff  4*5 4*5     0   0   2.5   # wall atoms

        
pair_modify  tail no shift yes mix arithmetic # LB mixing rule
neigh_modify delay 2 every 1 check yes page 500000 one 50000
######################################################################
# dealing with ideal flying particles: force field=simple_lj

# Non-interacting flying lj molecule (trial deletion)
# real lj particles
pair_coeff  * *         1.  1.  2.5   # solvent + ions
pair_coeff  4*5 4*5     0   0   2.5   # wall atoms
# flying particles
pair_coeff  * 6         0   0   2.5   # flying solvent  non-interacting
pair_coeff  * 7         0   0   2.5   # flying cation   non-interacting
pair_coeff  * 8         0   0   2.5   # flying anion    non-interacting

# flying solvetn or ions
set type 6  charge 0.                       # non-interacting
Setting atom values ...
  0 settings made for charge
set type 7  charge 0.                       # non-interacting
Setting atom values ...
  1 settings made for charge
set type 8  charge 0.                       # non-interacting
Setting atom values ...
  1 settings made for charge
        
run 0 post no # making flying moelcule non-interacting
PPPM initialization ...
  using 12-bit tables for long-range coulomb (../kspace.cpp:340)
  G vector (1/distance) = 0.80656374
  grid = 36 36 36
  stencil order = 5
  estimated absolute RMS force accuracy = 8.1571722e-05
  estimated relative force accuracy = 8.1571722e-05
  using single precision KISS FFT
  3d grid and FFT values/proc = 4913 2592
Neighbor list info ...
  update every 1 steps, delay 2 steps, check yes
  max neighbors/atom: 50000, page size: 500000
  master list distance cutoff = 3.8
  ghost atom cutoff = 3.8
  binsize = 1.9, bins = 11 11 11
  1 neighbor lists, perpetual/occasional/extra = 1 0 0
  (1) pair lj/cut/coul/long, perpetual
      attributes: half, newton on
      pair build: half/bin/atomonly/newton
      stencil: half/bin/3d
      bin: standard
Per MPI rank memory allocation (min/avg/max) = 5.425 | 5.447 | 5.490 Mbytes
Step Temp Atoms Density TotEng PotEng KinEng E_coul E_vdwl E_long Enthalpy Press 
   11700     0.997171     5202     0.752298 -15616.171094 -23395.604012  7779.432918   -62.271269 -23019.566050  -313.766693 -8323.973670     1.054577 
Loop time of 3.44848e-06 on 27 procs for 0 steps with 5202 atoms

# done post_propagate after NEMD
# selected salt 5030/5156
#The center of bimodal dist. on a positive side=0.800000
set type 7 type 2
Setting atom values ...
  1 settings made for type
set type 8 type 3
Setting atom values ...
  1 settings made for type
run 0 post no # lj type change (reject_delete)
PPPM initialization ...
  using 12-bit tables for long-range coulomb (../kspace.cpp:340)
  G vector (1/distance) = 0.80656374
  grid = 36 36 36
  stencil order = 5
  estimated absolute RMS force accuracy = 8.1571722e-05
  estimated relative force accuracy = 8.1571722e-05
  using single precision KISS FFT
  3d grid and FFT values/proc = 4913 2592
Per MPI rank memory allocation (min/avg/max) = 5.425 | 5.447 | 5.490 Mbytes
Step Temp Atoms Density TotEng PotEng KinEng E_coul E_vdwl E_long Enthalpy Press 
   11700     0.997171     5202     0.752298 17208.353466  9428.920548  7779.432918   -62.271269  9804.958510  -313.766693 156867.296056    20.197078 
Loop time of 2.94048e-06 on 27 procs for 0 steps with 5202 atoms

set atom 5030 charge 1.000000
Setting atom values ...
  1 settings made for charge
set atom 5156 charge -1.000000
Setting atom values ...
  1 settings made for charge
run 0 post no # charge return (reject_delete)
PPPM initialization ...
  using 12-bit tables for long-range coulomb (../kspace.cpp:340)
  G vector (1/distance) = 0.80673798
  grid = 36 36 36
  stencil order = 5
  estimated absolute RMS force accuracy = 8.2278886e-05
  estimated relative force accuracy = 8.2278886e-05
  using single precision KISS FFT
  3d grid and FFT values/proc = 4913 2592
Per MPI rank memory allocation (min/avg/max) = 5.425 | 5.447 | 5.490 Mbytes
Step Temp Atoms Density TotEng PotEng KinEng E_coul E_vdwl E_long Enthalpy Press 
   11700     0.997171     5202     0.752298 17206.279124  9426.846206  7779.432918   -61.835321  9804.958510  -316.276983 156864.528419    20.196978 
Loop time of 2.80863e-06 on 27 procs for 0 steps with 5202 atoms

run 0 post no # return_position back to old
PPPM initialization ...
  using 12-bit tables for long-range coulomb (../kspace.cpp:340)
  G vector (1/distance) = 0.80673798
  grid = 36 36 36
  stencil order = 5
  estimated absolute RMS force accuracy = 8.2278886e-05
  estimated relative force accuracy = 8.2278886e-05
  using single precision KISS FFT
  3d grid and FFT values/proc = 4913 2592
Per MPI rank memory allocation (min/avg/max) = 5.425 | 5.447 | 5.490 Mbytes
Step Temp Atoms Density TotEng PotEng KinEng E_coul E_vdwl E_long Enthalpy Press 
   11700     0.994067     5202     0.752298 -15628.627766 -23383.838987  7755.211220   -61.774267 -23012.855386  -309.209334 -8358.242709     1.051422 
Loop time of 2.95315e-06 on 27 procs for 0 steps with 5202 atoms

group widom_test         delete
group noneq_run          delete
group noneq_run_rigid    delete
reset_timestep 11600

group   solvent delete
group   water   delete
group   ions    delete
group   wall    delete
group   flying  delete
group   eq_run  delete
        

group   solvent type 1
5000 atoms in group solvent
group   water   empty
0 atoms in group water
group   ions    type 2 3
202 atoms in group ions
group   wall    type 4 5
0 atoms in group wall
group   flying  type 6 7 8
0 atoms in group flying
group   eq_run  union solvent ions flying
5202 atoms in group eq_run
            
######################################################################
pair_style   lj/cut/coul/long 2.500000 3.500000
kspace_style pppm 0.0001

# LJ (neq? False)
# real lj particles
pair_coeff  * *         1.  1.  2.5   # solvent + ions
pair_coeff  4*5 4*5     0   0   2.5   # wall atoms

        
pair_modify  tail no shift yes mix arithmetic # LB mixing rule
neigh_modify delay 2 every 1 check yes page 500000 one 50000
######################################################################
# shake is off; should be a dummy run
timestep 0.005000
thermo 2000
fix  eqmd   eq_run nvt temp 1.000000 1.000000 0.500000
run 0 # (neq? False) MD run
PPPM initialization ...
  using 12-bit tables for long-range coulomb (../kspace.cpp:340)
  G vector (1/distance) = 0.80673798
  grid = 36 36 36
  stencil order = 5
  estimated absolute RMS force accuracy = 8.2278886e-05
  estimated relative force accuracy = 8.2278886e-05
  using single precision KISS FFT
  3d grid and FFT values/proc = 4913 2592
Per MPI rank memory allocation (min/avg/max) = 5.425 | 5.447 | 5.490 Mbytes
Step Temp Atoms Density TotEng PotEng KinEng E_coul E_vdwl E_long Enthalpy Press 
   11600     0.994067     5202     0.752298 -15628.627766 -23383.838987  7755.211220   -61.774267 -23012.855386  -309.209334 -8358.242709     1.051422 
Loop time of 4.47337e-06 on 27 procs for 0 steps with 5202 atoms

104.3% CPU use with 27 MPI tasks x no OpenMP threads

MPI task timing breakdown:
Section |  min time  |  avg time  |  max time  |%varavg| %total
---------------------------------------------------------------
Pair    | 0          | 0          | 0          |   0.0 |  0.00
Kspace  | 0          | 0          | 0          |   0.0 |  0.00
Neigh   | 0          | 0          | 0          |   0.0 |  0.00
Comm    | 0          | 0          | 0          |   0.0 |  0.00
Output  | 0          | 0          | 0          |   0.0 |  0.00
Modify  | 0          | 0          | 0          |   0.0 |  0.00
Other   |            | 4.473e-06  |            |       |100.00

Nlocal:        192.667 ave         208 max         181 min
Histogram: 1 2 6 3 7 4 0 3 0 1
Nghost:        1847.89 ave        1870 max        1824 min
Histogram: 1 3 0 3 4 6 4 3 1 2
Neighs:        16524.0 ave       18140 max       15520 min
Histogram: 4 3 5 3 2 6 1 0 2 1

Total # of neighbors = 446147
Ave neighs/atom = 85.764514
Neighbor list builds = 0
Dangerous builds = 0
unfix    eqmd
#chosen_cation deletion_move -3.868499 7.609962 -1.764421 # select_molecule
#chosen_anion deletion_move -3.718144 8.211679 -2.551972 # select_molecule
# selected_velocity_salt 5016 cation vel -0.384328 -0.807773 -0.224659
# selected_velocity_salt 5160 anion vel -0.926398 0.482052 0.295778
group widom_test id  5016 5160 # select_molecule
2 atoms in group widom_test
set atom 5016 type 7
Setting atom values ...
  1 settings made for type
set atom 5160 type 8
Setting atom values ...
  1 settings made for type
run 0 post no # done selecting a flying molecule
PPPM initialization ...
  using 12-bit tables for long-range coulomb (../kspace.cpp:340)
  G vector (1/distance) = 0.80673798
  grid = 36 36 36
  stencil order = 5
  estimated absolute RMS force accuracy = 8.2278886e-05
  estimated relative force accuracy = 8.2278886e-05
  using single precision KISS FFT
  3d grid and FFT values/proc = 4913 2592
Per MPI rank memory allocation (min/avg/max) = 5.425 | 5.447 | 5.490 Mbytes
Step Temp Atoms Density TotEng PotEng KinEng E_coul E_vdwl E_long Enthalpy Press 
   11600     0.994067     5202     0.752298 -15628.627766 -23383.838987  7755.211220   -61.774267 -23012.855386  -309.209334 -8358.242709     1.051422 
Loop time of 3.40363e-06 on 27 procs for 0 steps with 5202 atoms

group noneq_run_rigid    intersect   all         water               # select_salt no selection
0 atoms in group noneq_run_rigid
group noneq_run_pre      subtract    all         noneq_run_rigid     # select_salt no selection
5202 atoms in group noneq_run_pre
group noneq_run          subtract    noneq_run_pre   widom_test      # select_salt no selection
5200 atoms in group noneq_run
group noneq_run_pre      delete
run 0 post no # mom rev random number
PPPM initialization ...
  using 12-bit tables for long-range coulomb (../kspace.cpp:340)
  G vector (1/distance) = 0.80673798
  grid = 36 36 36
  stencil order = 5
  estimated absolute RMS force accuracy = 8.2278886e-05
  estimated relative force accuracy = 8.2278886e-05
  using single precision KISS FFT
  3d grid and FFT values/proc = 4913 2592
Per MPI rank memory allocation (min/avg/max) = 5.425 | 5.447 | 5.490 Mbytes
Step Temp Atoms Density TotEng PotEng KinEng E_coul E_vdwl E_long Enthalpy Press 
   11600     0.994067     5202     0.752298 -15628.627766 -23383.838987  7755.211220   -61.774267 -23012.855386  -309.209334 -8358.242709     1.051422 
Loop time of 3.02456e-06 on 27 procs for 0 steps with 5202 atoms

######################################################################
pair_style   lj/cut/coul/long/neq 2.500000 3.500000 11600 100 1.000000 5 0 0 1.000000 1.000000 11 1.000000
kspace_style pppm 0.0001

# LJ (neq? True)
# real lj particles
pair_coeff  * *         1.  1.  2.5   # solvent + ions
pair_coeff  4*5 4*5     0   0   2.5   # wall atoms

        
pair_modify  tail no shift yes mix arithmetic # LB mixing rule
neigh_modify delay 2 every 1 check yes page 500000 one 50000
######################################################################
timestep 0.010000
fix  eqmd  noneq_run           nve                 # nve for non-rigid
run 100 # (neq? True) MD run
PPPM initialization ...
  using 12-bit tables for long-range coulomb (../kspace.cpp:340)
  G vector (1/distance) = 0.80673798
  grid = 36 36 36
  stencil order = 5
  estimated absolute RMS force accuracy = 8.2278886e-05
  estimated relative force accuracy = 8.2278886e-05
  using single precision KISS FFT
  3d grid and FFT values/proc = 4913 2592
Neighbor list info ...
  update every 1 steps, delay 2 steps, check yes
  max neighbors/atom: 50000, page size: 500000
  master list distance cutoff = 3.8
  ghost atom cutoff = 3.8
  binsize = 1.9, bins = 11 11 11
  1 neighbor lists, perpetual/occasional/extra = 1 0 0
  (1) pair lj/cut/coul/long/neq, perpetual
      attributes: half, newton on
      pair build: half/bin/atomonly/newton
      stencil: half/bin/3d
      bin: standard
Per MPI rank memory allocation (min/avg/max) = 5.425 | 5.447 | 5.490 Mbytes
Step Temp Atoms Density TotEng PotEng KinEng E_coul E_vdwl E_long Enthalpy Press 
   11600     0.994067     5202     0.752298 -15628.627766 -23383.838987  7755.211220   -61.774267 -23012.855386  -309.209334 -8358.242709     1.051422 
   11700     0.991375     5202     0.752298 -15620.006256 -23354.218075  7734.211819   -63.429456 -22974.593120  -316.195499 -8107.599541     1.086423 
Loop time of 0.308488 on 27 procs for 100 steps with 5202 atoms

Performance: 280075.863 tau/day, 324.162 timesteps/s
92.8% CPU use with 27 MPI tasks x no OpenMP threads

MPI task timing breakdown:
Section |  min time  |  avg time  |  max time  |%varavg| %total
---------------------------------------------------------------
Pair    | 0.057449   | 0.095126   | 0.11198    |   5.4 | 30.84
Kspace  | 0.15636    | 0.17357    | 0.21177    |   4.2 | 56.27
Neigh   | 0.015358   | 0.021999   | 0.025363   |   1.9 |  7.13
Comm    | 0.013747   | 0.015653   | 0.019951   |   1.6 |  5.07
Output  | 5.3503e-05 | 6.3695e-05 | 0.00018475 |   0.0 |  0.02
Modify  | 0.00035057 | 0.00053457 | 0.00064371 |   0.0 |  0.17
Other   |            | 0.001539   |            |       |  0.50

Nlocal:        192.667 ave         204 max         182 min
Histogram: 3 1 1 4 7 3 3 1 1 3
Nghost:        1852.41 ave        1873 max        1816 min
Histogram: 1 0 0 4 1 3 6 4 6 2
Neighs:        16522.4 ave       18215 max       15203 min
Histogram: 2 5 2 2 5 4 2 3 1 1

Total # of neighbors = 446106
Ave neighs/atom = 85.756632
Neighbor list builds = 26
Dangerous builds = 0
unfix    eqmd

group   solvent type 1
5000 atoms in group solvent
group   water   empty
0 atoms in group water
group   ions    type 2 3
202 atoms in group ions
group   wall    type 4 5
0 atoms in group wall
group   flying  type 6 7 8
2 atoms in group flying
group   eq_run  union solvent ions flying
5202 atoms in group eq_run
            
######################################################################
pair_style   lj/cut/coul/long 2.500000 3.500000
kspace_style pppm 0.0001

# LJ (neq? False)
# real lj particles
pair_coeff  * *         1.  1.  2.5   # solvent + ions
pair_coeff  4*5 4*5     0   0   2.5   # wall atoms

        
pair_modify  tail no shift yes mix arithmetic # LB mixing rule
neigh_modify delay 2 every 1 check yes page 500000 one 50000
######################################################################
# dealing with ideal flying particles: force field=simple_lj

# Non-interacting flying lj molecule (trial deletion)
# real lj particles
pair_coeff  * *         1.  1.  2.5   # solvent + ions
pair_coeff  4*5 4*5     0   0   2.5   # wall atoms
# flying particles
pair_coeff  * 6         0   0   2.5   # flying solvent  non-interacting
pair_coeff  * 7         0   0   2.5   # flying cation   non-interacting
pair_coeff  * 8         0   0   2.5   # flying anion    non-interacting

# flying solvetn or ions
set type 6  charge 0.                       # non-interacting
Setting atom values ...
  0 settings made for charge
set type 7  charge 0.                       # non-interacting
Setting atom values ...
  1 settings made for charge
set type 8  charge 0.                       # non-interacting
Setting atom values ...
  1 settings made for charge
        
run 0 post no # making flying moelcule non-interacting
PPPM initialization ...
  using 12-bit tables for long-range coulomb (../kspace.cpp:340)
  G vector (1/distance) = 0.80656374
  grid = 36 36 36
  stencil order = 5
  estimated absolute RMS force accuracy = 8.1571722e-05
  estimated relative force accuracy = 8.1571722e-05
  using single precision KISS FFT
  3d grid and FFT values/proc = 4913 2592
Neighbor list info ...
  update every 1 steps, delay 2 steps, check yes
  max neighbors/atom: 50000, page size: 500000
  master list distance cutoff = 3.8
  ghost atom cutoff = 3.8
  binsize = 1.9, bins = 11 11 11
  1 neighbor lists, perpetual/occasional/extra = 1 0 0
  (1) pair lj/cut/coul/long, perpetual
      attributes: half, newton on
      pair build: half/bin/atomonly/newton
      stencil: half/bin/3d
      bin: standard
Per MPI rank memory allocation (min/avg/max) = 5.425 | 5.447 | 5.490 Mbytes
Step Temp Atoms Density TotEng PotEng KinEng E_coul E_vdwl E_long Enthalpy Press 
   11700     0.991375     5202     0.752298 -15607.011476 -23341.223295  7734.211819   -63.286060 -22966.483519  -311.453717 -8092.420603     1.086739 
Loop time of 2.57559e-06 on 27 procs for 0 steps with 5202 atoms

# done post_propagate after NEMD
# selected salt 5016/5160
#The center of bimodal dist. on a positive side=0.800000
set type 7 type 2
Setting atom values ...
  1 settings made for type
set type 8 type 3
Setting atom values ...
  1 settings made for type
run 0 post no # lj type change (reject_delete)
PPPM initialization ...
  using 12-bit tables for long-range coulomb (../kspace.cpp:340)
  G vector (1/distance) = 0.80656374
  grid = 36 36 36
  stencil order = 5
  estimated absolute RMS force accuracy = 8.1571722e-05
  estimated relative force accuracy = 8.1571722e-05
  using single precision KISS FFT
  3d grid and FFT values/proc = 4913 2592
Per MPI rank memory allocation (min/avg/max) = 5.425 | 5.447 | 5.490 Mbytes
Step Temp Atoms Density TotEng PotEng KinEng E_coul E_vdwl E_long Enthalpy Press 
   11700     0.991375     5202     0.752298 158561.538803 150827.326984  7734.211819   -63.286060 151202.066761  -311.453717 864774.293071   102.130475 
Loop time of 2.8543e-06 on 27 procs for 0 steps with 5202 atoms

set atom 5016 charge 1.000000
Setting atom values ...
  1 settings made for charge
set atom 5160 charge -1.000000
Setting atom values ...
  1 settings made for charge
run 0 post no # charge return (reject_delete)
PPPM initialization ...
  using 12-bit tables for long-range coulomb (../kspace.cpp:340)
  G vector (1/distance) = 0.80673798
  grid = 36 36 36
  stencil order = 5
  estimated absolute RMS force accuracy = 8.2278886e-05
  estimated relative force accuracy = 8.2278886e-05
  using single precision KISS FFT
  3d grid and FFT values/proc = 4913 2592
Per MPI rank memory allocation (min/avg/max) = 5.425 | 5.447 | 5.490 Mbytes
Step Temp Atoms Density TotEng PotEng KinEng E_coul E_vdwl E_long Enthalpy Press 
   11700     0.991375     5202     0.752298 158555.541176 150821.329357  7734.211819   -64.541905 151202.066761  -316.195499 864766.295642   102.130186 
Loop time of 2.82585e-06 on 27 procs for 0 steps with 5202 atoms

run 0 post no # return_position back to old
PPPM initialization ...
  using 12-bit tables for long-range coulomb (../kspace.cpp:340)
  G vector (1/distance) = 0.80673798
  grid = 36 36 36
  stencil order = 5
  estimated absolute RMS force accuracy = 8.2278886e-05
  estimated relative force accuracy = 8.2278886e-05
  using single precision KISS FFT
  3d grid and FFT values/proc = 4913 2592
Per MPI rank memory allocation (min/avg/max) = 5.425 | 5.447 | 5.490 Mbytes
Step Temp Atoms Density TotEng PotEng KinEng E_coul E_vdwl E_long Enthalpy Press 
   11700     0.994067     5202     0.752298 -15628.627766 -23383.838987  7755.211220   -61.774267 -23012.855386  -309.209334 -8358.242709     1.051422 
Loop time of 2.82207e-06 on 27 procs for 0 steps with 5202 atoms

group widom_test         delete
group noneq_run          delete
group noneq_run_rigid    delete
reset_timestep 11600

group   solvent delete
group   water   delete
group   ions    delete
group   wall    delete
group   flying  delete
group   eq_run  delete
        

group   solvent type 1
5000 atoms in group solvent
group   water   empty
0 atoms in group water
group   ions    type 2 3
202 atoms in group ions
group   wall    type 4 5
0 atoms in group wall
group   flying  type 6 7 8
0 atoms in group flying
group   eq_run  union solvent ions flying
5202 atoms in group eq_run
            
######################################################################
pair_style   lj/cut/coul/long 2.500000 3.500000
kspace_style pppm 0.0001

# LJ (neq? False)
# real lj particles
pair_coeff  * *         1.  1.  2.5   # solvent + ions
pair_coeff  4*5 4*5     0   0   2.5   # wall atoms

        
pair_modify  tail no shift yes mix arithmetic # LB mixing rule
neigh_modify delay 2 every 1 check yes page 500000 one 50000
######################################################################
# shake is off; should be a dummy run
timestep 0.005000
thermo 2000
fix  eqmd   eq_run nvt temp 1.000000 1.000000 0.500000
run 0 # (neq? False) MD run
PPPM initialization ...
  using 12-bit tables for long-range coulomb (../kspace.cpp:340)
  G vector (1/distance) = 0.80673798
  grid = 36 36 36
  stencil order = 5
  estimated absolute RMS force accuracy = 8.2278886e-05
  estimated relative force accuracy = 8.2278886e-05
  using single precision KISS FFT
  3d grid and FFT values/proc = 4913 2592
Per MPI rank memory allocation (min/avg/max) = 5.425 | 5.447 | 5.490 Mbytes
Step Temp Atoms Density TotEng PotEng KinEng E_coul E_vdwl E_long Enthalpy Press 
   11600     0.994067     5202     0.752298 -15628.627766 -23383.838987  7755.211220   -61.774267 -23012.855386  -309.209334 -8358.242709     1.051422 
Loop time of 3.04363e-06 on 27 procs for 0 steps with 5202 atoms

4.9% CPU use with 27 MPI tasks x no OpenMP threads

MPI task timing breakdown:
Section |  min time  |  avg time  |  max time  |%varavg| %total
---------------------------------------------------------------
Pair    | 0          | 0          | 0          |   0.0 |  0.00
Kspace  | 0          | 0          | 0          |   0.0 |  0.00
Neigh   | 0          | 0          | 0          |   0.0 |  0.00
Comm    | 0          | 0          | 0          |   0.0 |  0.00
Output  | 0          | 0          | 0          |   0.0 |  0.00
Modify  | 0          | 0          | 0          |   0.0 |  0.00
Other   |            | 3.044e-06  |            |       |100.00

Nlocal:        192.667 ave         208 max         181 min
Histogram: 1 2 6 3 7 4 0 3 0 1
Nghost:        1847.89 ave        1870 max        1824 min
Histogram: 1 3 0 3 4 6 4 3 1 2
Neighs:        16524.0 ave       18140 max       15520 min
Histogram: 4 3 5 3 2 6 1 0 2 1

Total # of neighbors = 446147
Ave neighs/atom = 85.764514
Neighbor list builds = 0
Dangerous builds = 0
unfix    eqmd
#chosen_cation deletion_move -2.580943 6.885561 3.746788 # select_molecule
#chosen_anion deletion_move -3.688218 7.204343 1.019471 # select_molecule
# selected_velocity_salt 5045 cation vel 1.281146 -0.929511 0.603632
# selected_velocity_salt 5133 anion vel 0.206671 0.094306 -0.133346
group widom_test id  5045 5133 # select_molecule
2 atoms in group widom_test
set atom 5045 type 7
Setting atom values ...
  1 settings made for type
set atom 5133 type 8
Setting atom values ...
  1 settings made for type
run 0 post no # done selecting a flying molecule
PPPM initialization ...
  using 12-bit tables for long-range coulomb (../kspace.cpp:340)
  G vector (1/distance) = 0.80673798
  grid = 36 36 36
  stencil order = 5
  estimated absolute RMS force accuracy = 8.2278886e-05
  estimated relative force accuracy = 8.2278886e-05
  using single precision KISS FFT
  3d grid and FFT values/proc = 4913 2592
Per MPI rank memory allocation (min/avg/max) = 5.425 | 5.447 | 5.490 Mbytes
Step Temp Atoms Density TotEng PotEng KinEng E_coul E_vdwl E_long Enthalpy Press 
   11600     0.994067     5202     0.752298 -15628.627766 -23383.838987  7755.211220   -61.774267 -23012.855386  -309.209334 -8358.242709     1.051422 
Loop time of 2.86407e-06 on 27 procs for 0 steps with 5202 atoms

group noneq_run_rigid    intersect   all         water               # select_salt no selection
0 atoms in group noneq_run_rigid
group noneq_run_pre      subtract    all         noneq_run_rigid     # select_salt no selection
5202 atoms in group noneq_run_pre
group noneq_run          subtract    noneq_run_pre   widom_test      # select_salt no selection
5200 atoms in group noneq_run
group noneq_run_pre      delete
run 0 post no # mom rev random number
PPPM initialization ...
  using 12-bit tables for long-range coulomb (../kspace.cpp:340)
  G vector (1/distance) = 0.80673798
  grid = 36 36 36
  stencil order = 5
  estimated absolute RMS force accuracy = 8.2278886e-05
  estimated relative force accuracy = 8.2278886e-05
  using single precision KISS FFT
  3d grid and FFT values/proc = 4913 2592
Per MPI rank memory allocation (min/avg/max) = 5.425 | 5.447 | 5.490 Mbytes
Step Temp Atoms Density TotEng PotEng KinEng E_coul E_vdwl E_long Enthalpy Press 
   11600     0.994067     5202     0.752298 -15628.627766 -23383.838987  7755.211220   -61.774267 -23012.855386  -309.209334 -8358.242709     1.051422 
Loop time of 2.9647e-06 on 27 procs for 0 steps with 5202 atoms

######################################################################
pair_style   lj/cut/coul/long/neq 2.500000 3.500000 11600 100 1.000000 5 0 0 1.000000 1.000000 11 1.000000
kspace_style pppm 0.0001

# LJ (neq? True)
# real lj particles
pair_coeff  * *         1.  1.  2.5   # solvent + ions
pair_coeff  4*5 4*5     0   0   2.5   # wall atoms

        
pair_modify  tail no shift yes mix arithmetic # LB mixing rule
neigh_modify delay 2 every 1 check yes page 500000 one 50000
######################################################################
timestep 0.010000
fix  eqmd  noneq_run           nve                 # nve for non-rigid
run 100 # (neq? True) MD run
PPPM initialization ...
  using 12-bit tables for long-range coulomb (../kspace.cpp:340)
  G vector (1/distance) = 0.80673798
  grid = 36 36 36
  stencil order = 5
  estimated absolute RMS force accuracy = 8.2278886e-05
  estimated relative force accuracy = 8.2278886e-05
  using single precision KISS FFT
  3d grid and FFT values/proc = 4913 2592
Neighbor list info ...
  update every 1 steps, delay 2 steps, check yes
  max neighbors/atom: 50000, page size: 500000
  master list distance cutoff = 3.8
  ghost atom cutoff = 3.8
  binsize = 1.9, bins = 11 11 11
  1 neighbor lists, perpetual/occasional/extra = 1 0 0
  (1) pair lj/cut/coul/long/neq, perpetual
      attributes: half, newton on
      pair build: half/bin/atomonly/newton
      stencil: half/bin/3d
      bin: standard
Per MPI rank memory allocation (min/avg/max) = 5.425 | 5.447 | 5.490 Mbytes
Step Temp Atoms Density TotEng PotEng KinEng E_coul E_vdwl E_long Enthalpy Press 
   11600     0.994067     5202     0.752298 -15628.627766 -23383.838987  7755.211220   -61.774267 -23012.855386  -309.209334 -8358.242709     1.051422 
   11700     0.992848     5202     0.752298 -15625.761521 -23371.465651  7745.704130   -64.277412 -22990.307036  -316.881202 -8215.891348     1.071594 
Loop time of 0.30891 on 27 procs for 100 steps with 5202 atoms

Performance: 279692.814 tau/day, 323.719 timesteps/s
92.8% CPU use with 27 MPI tasks x no OpenMP threads

MPI task timing breakdown:
Section |  min time  |  avg time  |  max time  |%varavg| %total
---------------------------------------------------------------
Pair    | 0.0571     | 0.094897   | 0.11226    |   5.5 | 30.72
Kspace  | 0.15623    | 0.17427    | 0.21469    |   4.3 | 56.41
Neigh   | 0.014746   | 0.021941   | 0.025761   |   2.1 |  7.10
Comm    | 0.013834   | 0.015703   | 0.020214   |   1.7 |  5.08
Output  | 5.285e-05  | 6.3139e-05 | 0.00018679 |   0.0 |  0.02
Modify  | 0.00032841 | 0.00052767 | 0.00063696 |   0.0 |  0.17
Other   |            | 0.001509   |            |       |  0.49

Nlocal:        192.667 ave         206 max         182 min
Histogram: 3 0 4 6 3 5 2 2 1 1
Nghost:        1852.04 ave        1870 max        1817 min
Histogram: 1 0 1 3 1 2 6 4 3 6
Neighs:        16519.3 ave       18423 max       15050 min
Histogram: 1 6 1 3 5 5 3 2 0 1

Total # of neighbors = 446022
Ave neighs/atom = 85.740484
Neighbor list builds = 26
Dangerous builds = 0
unfix    eqmd

group   solvent type 1
5000 atoms in group solvent
group   water   empty
0 atoms in group water
group   ions    type 2 3
202 atoms in group ions
group   wall    type 4 5
0 atoms in group wall
group   flying  type 6 7 8
2 atoms in group flying
group   eq_run  union solvent ions flying
5202 atoms in group eq_run
            
######################################################################
pair_style   lj/cut/coul/long 2.500000 3.500000
kspace_style pppm 0.0001

# LJ (neq? False)
# real lj particles
pair_coeff  * *         1.  1.  2.5   # solvent + ions
pair_coeff  4*5 4*5     0   0   2.5   # wall atoms

        
pair_modify  tail no shift yes mix arithmetic # LB mixing rule
neigh_modify delay 2 every 1 check yes page 500000 one 50000
######################################################################
# dealing with ideal flying particles: force field=simple_lj

# Non-interacting flying lj molecule (trial deletion)
# real lj particles
pair_coeff  * *         1.  1.  2.5   # solvent + ions
pair_coeff  4*5 4*5     0   0   2.5   # wall atoms
# flying particles
pair_coeff  * 6         0   0   2.5   # flying solvent  non-interacting
pair_coeff  * 7         0   0   2.5   # flying cation   non-interacting
pair_coeff  * 8         0   0   2.5   # flying anion    non-interacting

# flying solvetn or ions
set type 6  charge 0.                       # non-interacting
Setting atom values ...
  0 settings made for charge
set type 7  charge 0.                       # non-interacting
Setting atom values ...
  1 settings made for charge
set type 8  charge 0.                       # non-interacting
Setting atom values ...
  1 settings made for charge
        
run 0 post no # making flying moelcule non-interacting
PPPM initialization ...
  using 12-bit tables for long-range coulomb (../kspace.cpp:340)
  G vector (1/distance) = 0.80656374
  grid = 36 36 36
  stencil order = 5
  estimated absolute RMS force accuracy = 8.1571722e-05
  estimated relative force accuracy = 8.1571722e-05
  using single precision KISS FFT
  3d grid and FFT values/proc = 4913 2592
Neighbor list info ...
  update every 1 steps, delay 2 steps, check yes
  max neighbors/atom: 50000, page size: 500000
  master list distance cutoff = 3.8
  ghost atom cutoff = 3.8
  binsize = 1.9, bins = 11 11 11
  1 neighbor lists, perpetual/occasional/extra = 1 0 0
  (1) pair lj/cut/coul/long, perpetual
      attributes: half, newton on
      pair build: half/bin/atomonly/newton
      stencil: half/bin/3d
      bin: standard
Per MPI rank memory allocation (min/avg/max) = 5.425 | 5.447 | 5.490 Mbytes
Step Temp Atoms Density TotEng PotEng KinEng E_coul E_vdwl E_long Enthalpy Press 
   11700     0.992848     5202     0.752298 -15614.696096 -23360.400225  7745.704130   -64.309071 -22981.639133  -314.452021 -8194.582648     1.073076 
Loop time of 3.20874e-06 on 27 procs for 0 steps with 5202 atoms

# done post_propagate after NEMD
# selected salt 5045/5133
#The center of bimodal dist. on a positive side=0.800000
set type 7 type 2
Setting atom values ...
  1 settings made for type
set type 8 type 3
Setting atom values ...
  1 settings made for type
run 0 post no # lj type change (reject_delete)
PPPM initialization ...
  using 12-bit tables for long-range coulomb (../kspace.cpp:340)
  G vector (1/distance) = 0.80656374
  grid = 36 36 36
  stencil order = 5
  estimated absolute RMS force accuracy = 8.1571722e-05
  estimated relative force accuracy = 8.1571722e-05
  using single precision KISS FFT
  3d grid and FFT values/proc = 4913 2592
Per MPI rank memory allocation (min/avg/max) = 5.425 | 5.447 | 5.490 Mbytes
Step Temp Atoms Density TotEng PotEng KinEng E_coul E_vdwl E_long Enthalpy Press 
   11700     0.992848     5202     0.752298 38584.791847 30839.087717  7745.704130   -64.309071 31217.848809  -314.452021 264065.728812    32.608410 
Loop time of 2.83333e-06 on 27 procs for 0 steps with 5202 atoms

set atom 5045 charge 1.000000
Setting atom values ...
  1 settings made for charge
set atom 5133 charge -1.000000
Setting atom values ...
  1 settings made for charge
run 0 post no # charge return (reject_delete)
PPPM initialization ...
  using 12-bit tables for long-range coulomb (../kspace.cpp:340)
  G vector (1/distance) = 0.80673798
  grid = 36 36 36
  stencil order = 5
  estimated absolute RMS force accuracy = 8.2278886e-05
  estimated relative force accuracy = 8.2278886e-05
  using single precision KISS FFT
  3d grid and FFT values/proc = 4913 2592
Per MPI rank memory allocation (min/avg/max) = 5.425 | 5.447 | 5.490 Mbytes
Step Temp Atoms Density TotEng PotEng KinEng E_coul E_vdwl E_long Enthalpy Press 
   11700     0.992848     5202     0.752298 38582.392246 30836.688117  7745.704130   -64.279490 31217.848809  -316.881203 264062.528392    32.608294 
Loop time of 2.84219e-06 on 27 procs for 0 steps with 5202 atoms

run 0 post no # return_position back to old
PPPM initialization ...
  using 12-bit tables for long-range coulomb (../kspace.cpp:340)
  G vector (1/distance) = 0.80673798
  grid = 36 36 36
  stencil order = 5
  estimated absolute RMS force accuracy = 8.2278886e-05
  estimated relative force accuracy = 8.2278886e-05
  using single precision KISS FFT
  3d grid and FFT values/proc = 4913 2592
Per MPI rank memory allocation (min/avg/max) = 5.425 | 5.447 | 5.490 Mbytes
Step Temp Atoms Density TotEng PotEng KinEng E_coul E_vdwl E_long Enthalpy Press 
   11700     0.994067     5202     0.752298 -15628.627766 -23383.838987  7755.211220   -61.774267 -23012.855386  -309.209334 -8358.242709     1.051422 
Loop time of 2.80093e-06 on 27 procs for 0 steps with 5202 atoms

group widom_test         delete
group noneq_run          delete
group noneq_run_rigid    delete
reset_timestep 11600

group   solvent delete
group   water   delete
group   ions    delete
group   wall    delete
group   flying  delete
group   eq_run  delete
        

group   solvent type 1
5000 atoms in group solvent
group   water   empty
0 atoms in group water
group   ions    type 2 3
202 atoms in group ions
group   wall    type 4 5
0 atoms in group wall
group   flying  type 6 7 8
0 atoms in group flying
group   eq_run  union solvent ions flying
5202 atoms in group eq_run
            
######################################################################
pair_style   lj/cut/coul/long 2.500000 3.500000
kspace_style pppm 0.0001

# LJ (neq? False)
# real lj particles
pair_coeff  * *         1.  1.  2.5   # solvent + ions
pair_coeff  4*5 4*5     0   0   2.5   # wall atoms

        
pair_modify  tail no shift yes mix arithmetic # LB mixing rule
neigh_modify delay 2 every 1 check yes page 500000 one 50000
######################################################################
# shake is off; should be a dummy run
timestep 0.005000
thermo 2000
fix  eqmd   eq_run nvt temp 1.000000 1.000000 0.500000
run 0 # (neq? False) MD run
PPPM initialization ...
  using 12-bit tables for long-range coulomb (../kspace.cpp:340)
  G vector (1/distance) = 0.80673798
  grid = 36 36 36
  stencil order = 5
  estimated absolute RMS force accuracy = 8.2278886e-05
  estimated relative force accuracy = 8.2278886e-05
  using single precision KISS FFT
  3d grid and FFT values/proc = 4913 2592
Per MPI rank memory allocation (min/avg/max) = 5.425 | 5.447 | 5.490 Mbytes
Step Temp Atoms Density TotEng PotEng KinEng E_coul E_vdwl E_long Enthalpy Press 
   11600     0.994067     5202     0.752298 -15628.627766 -23383.838987  7755.211220   -61.774267 -23012.855386  -309.209334 -8358.242709     1.051422 
Loop time of 2.97952e-06 on 27 procs for 0 steps with 5202 atoms

126.8% CPU use with 27 MPI tasks x no OpenMP threads

MPI task timing breakdown:
Section |  min time  |  avg time  |  max time  |%varavg| %total
---------------------------------------------------------------
Pair    | 0          | 0          | 0          |   0.0 |  0.00
Kspace  | 0          | 0          | 0          |   0.0 |  0.00
Neigh   | 0          | 0          | 0          |   0.0 |  0.00
Comm    | 0          | 0          | 0          |   0.0 |  0.00
Output  | 0          | 0          | 0          |   0.0 |  0.00
Modify  | 0          | 0          | 0          |   0.0 |  0.00
Other   |            | 2.98e-06   |            |       |100.00

Nlocal:        192.667 ave         208 max         181 min
Histogram: 1 2 6 3 7 4 0 3 0 1
Nghost:        1847.89 ave        1870 max        1824 min
Histogram: 1 3 0 3 4 6 4 3 1 2
Neighs:        16524.0 ave       18140 max       15520 min
Histogram: 4 3 5 3 2 6 1 0 2 1

Total # of neighbors = 446147
Ave neighs/atom = 85.764514
Neighbor list builds = 0
Dangerous builds = 0
unfix    eqmd
#chosen_cation deletion_move -4.994028 -2.679237 8.583510 # select_molecule
#chosen_anion deletion_move -5.974005 -2.676335 8.714739 # select_molecule
# selected_velocity_salt 5069 cation vel -0.509227 0.461231 1.824073
# selected_velocity_salt 5120 anion vel 0.746405 0.265240 -0.132795
group widom_test id  5069 5120 # select_molecule
2 atoms in group widom_test
set atom 5069 type 7
Setting atom values ...
  1 settings made for type
set atom 5120 type 8
Setting atom values ...
  1 settings made for type
run 0 post no # done selecting a flying molecule
PPPM initialization ...
  using 12-bit tables for long-range coulomb (../kspace.cpp:340)
  G vector (1/distance) = 0.80673798
  grid = 36 36 36
  stencil order = 5
  estimated absolute RMS force accuracy = 8.2278886e-05
  estimated relative force accuracy = 8.2278886e-05
  using single precision KISS FFT
  3d grid and FFT values/proc = 4913 2592
Per MPI rank memory allocation (min/avg/max) = 5.425 | 5.447 | 5.490 Mbytes
Step Temp Atoms Density TotEng PotEng KinEng E_coul E_vdwl E_long Enthalpy Press 
   11600     0.994067     5202     0.752298 -15628.627766 -23383.838987  7755.211220   -61.774267 -23012.855386  -309.209334 -8358.242709     1.051422 
Loop time of 2.81241e-06 on 27 procs for 0 steps with 5202 atoms

group noneq_run_rigid    intersect   all         water               # select_salt no selection
0 atoms in group noneq_run_rigid
group noneq_run_pre      subtract    all         noneq_run_rigid     # select_salt no selection
5202 atoms in group noneq_run_pre
group noneq_run          subtract    noneq_run_pre   widom_test      # select_salt no selection
5200 atoms in group noneq_run
group noneq_run_pre      delete
run 0 post no # mom rev random number
PPPM initialization ...
  using 12-bit tables for long-range coulomb (../kspace.cpp:340)
  G vector (1/distance) = 0.80673798
  grid = 36 36 36
  stencil order = 5
  estimated absolute RMS force accuracy = 8.2278886e-05
  estimated relative force accuracy = 8.2278886e-05
  using single precision KISS FFT
  3d grid and FFT values/proc = 4913 2592
Per MPI rank memory allocation (min/avg/max) = 5.425 | 5.447 | 5.490 Mbytes
Step Temp Atoms Density TotEng PotEng KinEng E_coul E_vdwl E_long Enthalpy Press 
   11600     0.994067     5202     0.752298 -15628.627766 -23383.838987  7755.211220   -61.774267 -23012.855386  -309.209334 -8358.242709     1.051422 
Loop time of 2.84759e-06 on 27 procs for 0 steps with 5202 atoms

######################################################################
pair_style   lj/cut/coul/long/neq 2.500000 3.500000 11600 100 1.000000 5 0 0 1.000000 1.000000 11 1.000000
kspace_style pppm 0.0001

# LJ (neq? True)
# real lj particles
pair_coeff  * *         1.  1.  2.5   # solvent + ions
pair_coeff  4*5 4*5     0   0   2.5   # wall atoms

        
pair_modify  tail no shift yes mix arithmetic # LB mixing rule
neigh_modify delay 2 every 1 check yes page 500000 one 50000
######################################################################
timestep 0.010000
fix  eqmd  noneq_run           nve                 # nve for non-rigid
run 100 # (neq? True) MD run
PPPM initialization ...
  using 12-bit tables for long-range coulomb (../kspace.cpp:340)
  G vector (1/distance) = 0.80673798
  grid = 36 36 36
  stencil order = 5
  estimated absolute RMS force accuracy = 8.2278886e-05
  estimated relative force accuracy = 8.2278886e-05
  using single precision KISS FFT
  3d grid and FFT values/proc = 4913 2592
Neighbor list info ...
  update every 1 steps, delay 2 steps, check yes
  max neighbors/atom: 50000, page size: 500000
  master list distance cutoff = 3.8
  ghost atom cutoff = 3.8
  binsize = 1.9, bins = 11 11 11
  1 neighbor lists, perpetual/occasional/extra = 1 0 0
  (1) pair lj/cut/coul/long/neq, perpetual
      attributes: half, newton on
      pair build: half/bin/atomonly/newton
      stencil: half/bin/3d
      bin: standard
Per MPI rank memory allocation (min/avg/max) = 5.425 | 5.447 | 5.490 Mbytes
Step Temp Atoms Density TotEng PotEng KinEng E_coul E_vdwl E_long Enthalpy Press 
   11600     0.994067     5202     0.752298 -15628.627766 -23383.838987  7755.211220   -61.774267 -23012.855386  -309.209334 -8358.242709     1.051422 
   11700     0.996006     5202     0.752298 -15631.104518 -23401.446246  7770.341728   -61.447804 -23024.564855  -315.433586 -8295.997030     1.060782 
Loop time of 0.308522 on 27 procs for 100 steps with 5202 atoms

Performance: 280045.092 tau/day, 324.126 timesteps/s
92.9% CPU use with 27 MPI tasks x no OpenMP threads

MPI task timing breakdown:
Section |  min time  |  avg time  |  max time  |%varavg| %total
---------------------------------------------------------------
Pair    | 0.058164   | 0.094877   | 0.11249    |   5.4 | 30.75
Kspace  | 0.15622    | 0.17397    | 0.21329    |   4.1 | 56.39
Neigh   | 0.014772   | 0.021904   | 0.024591   |   2.0 |  7.10
Comm    | 0.013805   | 0.015662   | 0.020182   |   1.6 |  5.08
Output  | 5.3155e-05 | 6.3136e-05 | 0.00019111 |   0.0 |  0.02
Modify  | 0.00034533 | 0.00052761 | 0.00063546 |   0.0 |  0.17
Other   |            | 0.001513   |            |       |  0.49

Nlocal:        192.667 ave         206 max         183 min
Histogram: 2 2 6 5 1 3 5 0 1 2
Nghost:        1850.19 ave        1885 max        1826 min
Histogram: 3 3 1 4 7 5 2 1 0 1
Neighs:        16519.5 ave       18349 max       15430 min
Histogram: 5 4 4 1 4 2 5 1 0 1

Total # of neighbors = 446026
Ave neighs/atom = 85.741253
Neighbor list builds = 26
Dangerous builds = 0
unfix    eqmd

group   solvent type 1
5000 atoms in group solvent
group   water   empty
0 atoms in group water
group   ions    type 2 3
202 atoms in group ions
group   wall    type 4 5
0 atoms in group wall
group   flying  type 6 7 8
2 atoms in group flying
group   eq_run  union solvent ions flying
5202 atoms in group eq_run
            
######################################################################
pair_style   lj/cut/coul/long 2.500000 3.500000
kspace_style pppm 0.0001

# LJ (neq? False)
# real lj particles
pair_coeff  * *         1.  1.  2.5   # solvent + ions
pair_coeff  4*5 4*5     0   0   2.5   # wall atoms

        
pair_modify  tail no shift yes mix arithmetic # LB mixing rule
neigh_modify delay 2 every 1 check yes page 500000 one 50000
######################################################################
# dealing with ideal flying particles: force field=simple_lj

# Non-interacting flying lj molecule (trial deletion)
# real lj particles
pair_coeff  * *         1.  1.  2.5   # solvent + ions
pair_coeff  4*5 4*5     0   0   2.5   # wall atoms
# flying particles
pair_coeff  * 6         0   0   2.5   # flying solvent  non-interacting
pair_coeff  * 7         0   0   2.5   # flying cation   non-interacting
pair_coeff  * 8         0   0   2.5   # flying anion    non-interacting

# flying solvetn or ions
set type 6  charge 0.                       # non-interacting
Setting atom values ...
  0 settings made for charge
set type 7  charge 0.                       # non-interacting
Setting atom values ...
  1 settings made for charge
set type 8  charge 0.                       # non-interacting
Setting atom values ...
  1 settings made for charge
        
run 0 post no # making flying moelcule non-interacting
PPPM initialization ...
  using 12-bit tables for long-range coulomb (../kspace.cpp:340)
  G vector (1/distance) = 0.80656374
  grid = 36 36 36
  stencil order = 5
  estimated absolute RMS force accuracy = 8.1571722e-05
  estimated relative force accuracy = 8.1571722e-05
  using single precision KISS FFT
  3d grid and FFT values/proc = 4913 2592
Neighbor list info ...
  update every 1 steps, delay 2 steps, check yes
  max neighbors/atom: 50000, page size: 500000
  master list distance cutoff = 3.8
  ghost atom cutoff = 3.8
  binsize = 1.9, bins = 11 11 11
  1 neighbor lists, perpetual/occasional/extra = 1 0 0
  (1) pair lj/cut/coul/long, perpetual
      attributes: half, newton on
      pair build: half/bin/atomonly/newton
      stencil: half/bin/3d
      bin: standard
Per MPI rank memory allocation (min/avg/max) = 5.425 | 5.447 | 5.490 Mbytes
Step Temp Atoms Density TotEng PotEng KinEng E_coul E_vdwl E_long Enthalpy Press 
   11700     0.996006     5202     0.752298 -15619.397691 -23389.739419  7770.341728   -61.300857 -23016.517831  -311.920731 -8283.901934     1.060838 
Loop time of 2.8543e-06 on 27 procs for 0 steps with 5202 atoms

# done post_propagate after NEMD
# selected salt 5069/5120
#The center of bimodal dist. on a positive side=0.800000
set type 7 type 2
Setting atom values ...
  1 settings made for type
set type 8 type 3
Setting atom values ...
  1 settings made for type
run 0 post no # lj type change (reject_delete)
PPPM initialization ...
  using 12-bit tables for long-range coulomb (../kspace.cpp:340)
  G vector (1/distance) = 0.80656374
  grid = 36 36 36
  stencil order = 5
  estimated absolute RMS force accuracy = 8.1571722e-05
  estimated relative force accuracy = 8.1571722e-05
  using single precision KISS FFT
  3d grid and FFT values/proc = 4913 2592
Per MPI rank memory allocation (min/avg/max) = 5.425 | 5.447 | 5.490 Mbytes
Step Temp Atoms Density TotEng PotEng KinEng E_coul E_vdwl E_long Enthalpy Press 
   11700     0.996006     5202     0.752298 -15012.682136 -22783.023864  7770.341728   -61.300857 -22409.802276  -311.920731 -4985.228502     1.450142 
Loop time of 2.74152e-06 on 27 procs for 0 steps with 5202 atoms

set atom 5069 charge 1.000000
Setting atom values ...
  1 settings made for charge
set atom 5120 charge -1.000000
Setting atom values ...
  1 settings made for charge
run 0 post no # charge return (reject_delete)
PPPM initialization ...
  using 12-bit tables for long-range coulomb (../kspace.cpp:340)
  G vector (1/distance) = 0.80673798
  grid = 36 36 36
  stencil order = 5
  estimated absolute RMS force accuracy = 8.2278886e-05
  estimated relative force accuracy = 8.2278886e-05
  using single precision KISS FFT
  3d grid and FFT values/proc = 4913 2592
Per MPI rank memory allocation (min/avg/max) = 5.425 | 5.447 | 5.490 Mbytes
Step Temp Atoms Density TotEng PotEng KinEng E_coul E_vdwl E_long Enthalpy Press 
   11700     0.996006     5202     0.752298 -15017.478144 -22787.819872  7770.341728   -62.584010 -22409.802276  -315.433586 -4991.622571     1.449911 
Loop time of 3.07837e-06 on 27 procs for 0 steps with 5202 atoms

run 0 post no # return_position back to old
PPPM initialization ...
  using 12-bit tables for long-range coulomb (../kspace.cpp:340)
  G vector (1/distance) = 0.80673798
  grid = 36 36 36
  stencil order = 5
  estimated absolute RMS force accuracy = 8.2278886e-05
  estimated relative force accuracy = 8.2278886e-05
  using single precision KISS FFT
  3d grid and FFT values/proc = 4913 2592
Per MPI rank memory allocation (min/avg/max) = 5.425 | 5.447 | 5.490 Mbytes
Step Temp Atoms Density TotEng PotEng KinEng E_coul E_vdwl E_long Enthalpy Press 
   11700     0.994067     5202     0.752298 -15628.627766 -23383.838987  7755.211220   -61.774267 -23012.855386  -309.209334 -8358.242709     1.051422 
Loop time of 2.84085e-06 on 27 procs for 0 steps with 5202 atoms

group widom_test         delete
group noneq_run          delete
group noneq_run_rigid    delete
reset_timestep 11600

group   solvent delete
group   water   delete
group   ions    delete
group   wall    delete
group   flying  delete
group   eq_run  delete
        

group   solvent type 1
5000 atoms in group solvent
group   water   empty
0 atoms in group water
group   ions    type 2 3
202 atoms in group ions
group   wall    type 4 5
0 atoms in group wall
group   flying  type 6 7 8
0 atoms in group flying
group   eq_run  union solvent ions flying
5202 atoms in group eq_run
            
######################################################################
pair_style   lj/cut/coul/long 2.500000 3.500000
kspace_style pppm 0.0001

# LJ (neq? False)
# real lj particles
pair_coeff  * *         1.  1.  2.5   # solvent + ions
pair_coeff  4*5 4*5     0   0   2.5   # wall atoms

        
pair_modify  tail no shift yes mix arithmetic # LB mixing rule
neigh_modify delay 2 every 1 check yes page 500000 one 50000
######################################################################
# shake is off; should be a dummy run
timestep 0.005000
thermo 2000
fix  eqmd   eq_run nvt temp 1.000000 1.000000 0.500000
run 0 # (neq? False) MD run
PPPM initialization ...
  using 12-bit tables for long-range coulomb (../kspace.cpp:340)
  G vector (1/distance) = 0.80673798
  grid = 36 36 36
  stencil order = 5
  estimated absolute RMS force accuracy = 8.2278886e-05
  estimated relative force accuracy = 8.2278886e-05
  using single precision KISS FFT
  3d grid and FFT values/proc = 4913 2592
Per MPI rank memory allocation (min/avg/max) = 5.425 | 5.447 | 5.490 Mbytes
Step Temp Atoms Density TotEng PotEng KinEng E_coul E_vdwl E_long Enthalpy Press 
   11600     0.994067     5202     0.752298 -15628.627766 -23383.838987  7755.211220   -61.774267 -23012.855386  -309.209334 -8358.242709     1.051422 
Loop time of 3.11326e-06 on 27 procs for 0 steps with 5202 atoms

129.7% CPU use with 27 MPI tasks x no OpenMP threads

MPI task timing breakdown:
Section |  min time  |  avg time  |  max time  |%varavg| %total
---------------------------------------------------------------
Pair    | 0          | 0          | 0          |   0.0 |  0.00
Kspace  | 0          | 0          | 0          |   0.0 |  0.00
Neigh   | 0          | 0          | 0          |   0.0 |  0.00
Comm    | 0          | 0          | 0          |   0.0 |  0.00
Output  | 0          | 0          | 0          |   0.0 |  0.00
Modify  | 0          | 0          | 0          |   0.0 |  0.00
Other   |            | 3.113e-06  |            |       |100.00

Nlocal:        192.667 ave         208 max         181 min
Histogram: 1 2 6 3 7 4 0 3 0 1
Nghost:        1847.89 ave        1870 max        1824 min
Histogram: 1 3 0 3 4 6 4 3 1 2
Neighs:        16524.0 ave       18140 max       15520 min
Histogram: 4 3 5 3 2 6 1 0 2 1

Total # of neighbors = 446147
Ave neighs/atom = 85.764514
Neighbor list builds = 0
Dangerous builds = 0
unfix    eqmd
#chosen_cation deletion_move 7.368714 8.631840 -9.506726 # select_molecule
#chosen_anion deletion_move 5.679723 7.257825 7.466034 # select_molecule
# selected_velocity_salt 5024 cation vel -0.861052 -1.691638 -1.307970
# selected_velocity_salt 5171 anion vel -0.998048 -2.322768 0.777777
group widom_test id  5024 5171 # select_molecule
2 atoms in group widom_test
set atom 5024 type 7
Setting atom values ...
  1 settings made for type
set atom 5171 type 8
Setting atom values ...
  1 settings made for type
run 0 post no # done selecting a flying molecule
PPPM initialization ...
  using 12-bit tables for long-range coulomb (../kspace.cpp:340)
  G vector (1/distance) = 0.80673798
  grid = 36 36 36
  stencil order = 5
  estimated absolute RMS force accuracy = 8.2278886e-05
  estimated relative force accuracy = 8.2278886e-05
  using single precision KISS FFT
  3d grid and FFT values/proc = 4913 2592
Per MPI rank memory allocation (min/avg/max) = 5.425 | 5.447 | 5.490 Mbytes
Step Temp Atoms Density TotEng PotEng KinEng E_coul E_vdwl E_long Enthalpy Press 
   11600     0.994067     5202     0.752298 -15628.627766 -23383.838987  7755.211220   -61.774267 -23012.855386  -309.209334 -8358.242709     1.051422 
Loop time of 3.06115e-06 on 27 procs for 0 steps with 5202 atoms

group noneq_run_rigid    intersect   all         water               # select_salt no selection
0 atoms in group noneq_run_rigid
group noneq_run_pre      subtract    all         noneq_run_rigid     # select_salt no selection
5202 atoms in group noneq_run_pre
group noneq_run          subtract    noneq_run_pre   widom_test      # select_salt no selection
5200 atoms in group noneq_run
group noneq_run_pre      delete
run 0 post no # mom rev random number
PPPM initialization ...
  using 12-bit tables for long-range coulomb (../kspace.cpp:340)
  G vector (1/distance) = 0.80673798
  grid = 36 36 36
  stencil order = 5
  estimated absolute RMS force accuracy = 8.2278886e-05
  estimated relative force accuracy = 8.2278886e-05
  using single precision KISS FFT
  3d grid and FFT values/proc = 4913 2592
Per MPI rank memory allocation (min/avg/max) = 5.425 | 5.447 | 5.490 Mbytes
Step Temp Atoms Density TotEng PotEng KinEng E_coul E_vdwl E_long Enthalpy Press 
   11600     0.994067     5202     0.752298 -15628.627766 -23383.838987  7755.211220   -61.774267 -23012.855386  -309.209334 -8358.242709     1.051422 
Loop time of 3.15107e-06 on 27 procs for 0 steps with 5202 atoms

######################################################################
pair_style   lj/cut/coul/long/neq 2.500000 3.500000 11600 100 1.000000 5 0 0 1.000000 1.000000 11 1.000000
kspace_style pppm 0.0001

# LJ (neq? True)
# real lj particles
pair_coeff  * *         1.  1.  2.5   # solvent + ions
pair_coeff  4*5 4*5     0   0   2.5   # wall atoms

        
pair_modify  tail no shift yes mix arithmetic # LB mixing rule
neigh_modify delay 2 every 1 check yes page 500000 one 50000
######################################################################
timestep 0.010000
fix  eqmd  noneq_run           nve                 # nve for non-rigid
run 100 # (neq? True) MD run
PPPM initialization ...
  using 12-bit tables for long-range coulomb (../kspace.cpp:340)
  G vector (1/distance) = 0.80673798
  grid = 36 36 36
  stencil order = 5
  estimated absolute RMS force accuracy = 8.2278886e-05
  estimated relative force accuracy = 8.2278886e-05
  using single precision KISS FFT
  3d grid and FFT values/proc = 4913 2592
Neighbor list info ...
  update every 1 steps, delay 2 steps, check yes
  max neighbors/atom: 50000, page size: 500000
  master list distance cutoff = 3.8
  ghost atom cutoff = 3.8
  binsize = 1.9, bins = 11 11 11
  1 neighbor lists, perpetual/occasional/extra = 1 0 0
  (1) pair lj/cut/coul/long/neq, perpetual
      attributes: half, newton on
      pair build: half/bin/atomonly/newton
      stencil: half/bin/3d
      bin: standard
Per MPI rank memory allocation (min/avg/max) = 5.425 | 5.447 | 5.490 Mbytes
Step Temp Atoms Density TotEng PotEng KinEng E_coul E_vdwl E_long Enthalpy Press 
   11600     0.994067     5202     0.752298 -15628.627766 -23383.838987  7755.211220   -61.774267 -23012.855386  -309.209334 -8358.242709     1.051422 
   11700     0.998232     5202     0.752298 -15622.473207 -23410.179220  7787.706013   -62.508419 -23033.494391  -314.176410 -8432.086181     1.039853 
Loop time of 0.309582 on 27 procs for 100 steps with 5202 atoms

Performance: 279086.394 tau/day, 323.017 timesteps/s
92.6% CPU use with 27 MPI tasks x no OpenMP threads

MPI task timing breakdown:
Section |  min time  |  avg time  |  max time  |%varavg| %total
---------------------------------------------------------------
Pair    | 0.057      | 0.095332   | 0.11347    |   5.4 | 30.79
Kspace  | 0.15661    | 0.17453    | 0.21524    |   4.2 | 56.38
Neigh   | 0.014855   | 0.021945   | 0.025626   |   2.0 |  7.09
Comm    | 0.013714   | 0.015686   | 0.020383   |   1.7 |  5.07
Output  | 5.4534e-05 | 6.5101e-05 | 0.00019353 |   0.0 |  0.02
Modify  | 0.00033649 | 0.0005227  | 0.00062069 |   0.0 |  0.17
Other   |            | 0.001504   |            |       |  0.49

Nlocal:        192.667 ave         206 max         182 min
Histogram: 2 2 4 4 6 2 1 3 2 1
Nghost:        1850.30 ave        1872 max        1813 min
Histogram: 1 0 1 2 1 5 8 3 3 3
Neighs:        16521.4 ave       18441 max       15315 min
Histogram: 5 3 2 4 4 5 1 2 0 1

Total # of neighbors = 446078
Ave neighs/atom = 85.751250
Neighbor list builds = 26
Dangerous builds = 0
unfix    eqmd

group   solvent type 1
5000 atoms in group solvent
group   water   empty
0 atoms in group water
group   ions    type 2 3
202 atoms in group ions
group   wall    type 4 5
0 atoms in group wall
group   flying  type 6 7 8
2 atoms in group flying
group   eq_run  union solvent ions flying
5202 atoms in group eq_run
            
######################################################################
pair_style   lj/cut/coul/long 2.500000 3.500000
kspace_style pppm 0.0001

# LJ (neq? False)
# real lj particles
pair_coeff  * *         1.  1.  2.5   # solvent + ions
pair_coeff  4*5 4*5     0   0   2.5   # wall atoms

        
pair_modify  tail no shift yes mix arithmetic # LB mixing rule
neigh_modify delay 2 every 1 check yes page 500000 one 50000
######################################################################
# dealing with ideal flying particles: force field=simple_lj

# Non-interacting flying lj molecule (trial deletion)
# real lj particles
pair_coeff  * *         1.  1.  2.5   # solvent + ions
pair_coeff  4*5 4*5     0   0   2.5   # wall atoms
# flying particles
pair_coeff  * 6         0   0   2.5   # flying solvent  non-interacting
pair_coeff  * 7         0   0   2.5   # flying cation   non-interacting
pair_coeff  * 8         0   0   2.5   # flying anion    non-interacting

# flying solvetn or ions
set type 6  charge 0.                       # non-interacting
Setting atom values ...
  0 settings made for charge
set type 7  charge 0.                       # non-interacting
Setting atom values ...
  1 settings made for charge
set type 8  charge 0.                       # non-interacting
Setting atom values ...
  1 settings made for charge
        
run 0 post no # making flying moelcule non-interacting
PPPM initialization ...
  using 12-bit tables for long-range coulomb (../kspace.cpp:340)
  G vector (1/distance) = 0.80656374
  grid = 36 36 36
  stencil order = 5
  estimated absolute RMS force accuracy = 8.1571722e-05
  estimated relative force accuracy = 8.1571722e-05
  using single precision KISS FFT
  3d grid and FFT values/proc = 4913 2592
Neighbor list info ...
  update every 1 steps, delay 2 steps, check yes
  max neighbors/atom: 50000, page size: 500000
  master list distance cutoff = 3.8
  ghost atom cutoff = 3.8
  binsize = 1.9, bins = 11 11 11
  1 neighbor lists, perpetual/occasional/extra = 1 0 0
  (1) pair lj/cut/coul/long, perpetual
      attributes: half, newton on
      pair build: half/bin/atomonly/newton
      stencil: half/bin/3d
      bin: standard
Per MPI rank memory allocation (min/avg/max) = 5.425 | 5.447 | 5.490 Mbytes
Step Temp Atoms Density TotEng PotEng KinEng E_coul E_vdwl E_long Enthalpy Press 
   11700     0.998232     5202     0.752298 -15609.338083 -23397.044096  7787.706013   -62.418611 -23024.573991  -310.051493 -8409.124437     1.041274 
Loop time of 2.90967e-06 on 27 procs for 0 steps with 5202 atoms

# done post_propagate after NEMD
# selected salt 5024/5171
#The center of bimodal dist. on a positive side=0.800000
set type 7 type 2
Setting atom values ...
  1 settings made for type
set type 8 type 3
Setting atom values ...
  1 settings made for type
run 0 post no # lj type change (reject_delete)
PPPM initialization ...
  using 12-bit tables for long-range coulomb (../kspace.cpp:340)
  G vector (1/distance) = 0.80656374
  grid = 36 36 36
  stencil order = 5
  estimated absolute RMS force accuracy = 8.1571722e-05
  estimated relative force accuracy = 8.1571722e-05
  using single precision KISS FFT
  3d grid and FFT values/proc = 4913 2592
Per MPI rank memory allocation (min/avg/max) = 5.425 | 5.447 | 5.490 Mbytes
Step Temp Atoms Density TotEng PotEng KinEng E_coul E_vdwl E_long Enthalpy Press 
   11700     0.998232     5202     0.752298 25489.297105 17701.591093  7787.706013   -62.418611 18074.061197  -310.051493 198230.796934    24.981383 
Loop time of 2.80133e-06 on 27 procs for 0 steps with 5202 atoms

set atom 5024 charge 1.000000
Setting atom values ...
  1 settings made for charge
set atom 5171 charge -1.000000
Setting atom values ...
  1 settings made for charge
run 0 post no # charge return (reject_delete)
PPPM initialization ...
  using 12-bit tables for long-range coulomb (../kspace.cpp:340)
  G vector (1/distance) = 0.80673798
  grid = 36 36 36
  stencil order = 5
  estimated absolute RMS force accuracy = 8.2278886e-05
  estimated relative force accuracy = 8.2278886e-05
  using single precision KISS FFT
  3d grid and FFT values/proc = 4913 2592
Per MPI rank memory allocation (min/avg/max) = 5.425 | 5.447 | 5.490 Mbytes
Step Temp Atoms Density TotEng PotEng KinEng E_coul E_vdwl E_long Enthalpy Press 
   11700     0.998232     5202     0.752298 25484.152643 17696.446631  7787.706013   -63.438155 18074.061197  -314.176410 198223.937448    24.981135 
Loop time of 2.93244e-06 on 27 procs for 0 steps with 5202 atoms

run 0 post no # return_position back to old
PPPM initialization ...
  using 12-bit tables for long-range coulomb (../kspace.cpp:340)
  G vector (1/distance) = 0.80673798
  grid = 36 36 36
  stencil order = 5
  estimated absolute RMS force accuracy = 8.2278886e-05
  estimated relative force accuracy = 8.2278886e-05
  using single precision KISS FFT
  3d grid and FFT values/proc = 4913 2592
Per MPI rank memory allocation (min/avg/max) = 5.425 | 5.447 | 5.490 Mbytes
Step Temp Atoms Density TotEng PotEng KinEng E_coul E_vdwl E_long Enthalpy Press 
   11700     0.994067     5202     0.752298 -15628.627766 -23383.838987  7755.211220   -61.774267 -23012.855386  -309.209334 -8358.242709     1.051422 
Loop time of 2.99359e-06 on 27 procs for 0 steps with 5202 atoms

group widom_test         delete
group noneq_run          delete
group noneq_run_rigid    delete
reset_timestep 11600

group   solvent delete
group   water   delete
group   ions    delete
group   wall    delete
group   flying  delete
group   eq_run  delete
        

group   solvent type 1
5000 atoms in group solvent
group   water   empty
0 atoms in group water
group   ions    type 2 3
202 atoms in group ions
group   wall    type 4 5
0 atoms in group wall
group   flying  type 6 7 8
0 atoms in group flying
group   eq_run  union solvent ions flying
5202 atoms in group eq_run
            
######################################################################
pair_style   lj/cut/coul/long 2.500000 3.500000
kspace_style pppm 0.0001

# LJ (neq? False)
# real lj particles
pair_coeff  * *         1.  1.  2.5   # solvent + ions
pair_coeff  4*5 4*5     0   0   2.5   # wall atoms

        
pair_modify  tail no shift yes mix arithmetic # LB mixing rule
neigh_modify delay 2 every 1 check yes page 500000 one 50000
######################################################################
# shake is off; should be a dummy run
timestep 0.005000
thermo 2000
fix  eqmd   eq_run nvt temp 1.000000 1.000000 0.500000
run 0 # (neq? False) MD run
PPPM initialization ...
  using 12-bit tables for long-range coulomb (../kspace.cpp:340)
  G vector (1/distance) = 0.80673798
  grid = 36 36 36
  stencil order = 5
  estimated absolute RMS force accuracy = 8.2278886e-05
  estimated relative force accuracy = 8.2278886e-05
  using single precision KISS FFT
  3d grid and FFT values/proc = 4913 2592
Per MPI rank memory allocation (min/avg/max) = 5.425 | 5.447 | 5.490 Mbytes
Step Temp Atoms Density TotEng PotEng KinEng E_coul E_vdwl E_long Enthalpy Press 
   11600     0.994067     5202     0.752298 -15628.627766 -23383.838987  7755.211220   -61.774267 -23012.855386  -309.209334 -8358.242709     1.051422 
Loop time of 3.74019e-06 on 27 procs for 0 steps with 5202 atoms

79.2% CPU use with 27 MPI tasks x no OpenMP threads

MPI task timing breakdown:
Section |  min time  |  avg time  |  max time  |%varavg| %total
---------------------------------------------------------------
Pair    | 0          | 0          | 0          |   0.0 |  0.00
Kspace  | 0          | 0          | 0          |   0.0 |  0.00
Neigh   | 0          | 0          | 0          |   0.0 |  0.00
Comm    | 0          | 0          | 0          |   0.0 |  0.00
Output  | 0          | 0          | 0          |   0.0 |  0.00
Modify  | 0          | 0          | 0          |   0.0 |  0.00
Other   |            | 3.74e-06   |            |       |100.00

Nlocal:        192.667 ave         208 max         181 min
Histogram: 1 2 6 3 7 4 0 3 0 1
Nghost:        1847.89 ave        1870 max        1824 min
Histogram: 1 3 0 3 4 6 4 3 1 2
Neighs:        16524.0 ave       18140 max       15520 min
Histogram: 4 3 5 3 2 6 1 0 2 1

Total # of neighbors = 446147
Ave neighs/atom = 85.764514
Neighbor list builds = 0
Dangerous builds = 0
unfix    eqmd
#chosen_cation deletion_move 2.297579 -4.054765 -0.048104 # select_molecule
#chosen_anion deletion_move 2.997715 -5.930327 -1.716036 # select_molecule
# selected_velocity_salt 5048 cation vel 0.472943 0.462432 -1.025288
# selected_velocity_salt 5152 anion vel -0.075844 1.397409 0.050945
group widom_test id  5048 5152 # select_molecule
2 atoms in group widom_test
set atom 5048 type 7
Setting atom values ...
  1 settings made for type
set atom 5152 type 8
Setting atom values ...
  1 settings made for type
run 0 post no # done selecting a flying molecule
PPPM initialization ...
  using 12-bit tables for long-range coulomb (../kspace.cpp:340)
  G vector (1/distance) = 0.80673798
  grid = 36 36 36
  stencil order = 5
  estimated absolute RMS force accuracy = 8.2278886e-05
  estimated relative force accuracy = 8.2278886e-05
  using single precision KISS FFT
  3d grid and FFT values/proc = 4913 2592
Per MPI rank memory allocation (min/avg/max) = 5.425 | 5.447 | 5.490 Mbytes
Step Temp Atoms Density TotEng PotEng KinEng E_coul E_vdwl E_long Enthalpy Press 
   11600     0.994067     5202     0.752298 -15628.627766 -23383.838987  7755.211220   -61.774267 -23012.855386  -309.209334 -8358.242709     1.051422 
Loop time of 3.28196e-06 on 27 procs for 0 steps with 5202 atoms

group noneq_run_rigid    intersect   all         water               # select_salt no selection
0 atoms in group noneq_run_rigid
group noneq_run_pre      subtract    all         noneq_run_rigid     # select_salt no selection
5202 atoms in group noneq_run_pre
group noneq_run          subtract    noneq_run_pre   widom_test      # select_salt no selection
5200 atoms in group noneq_run
group noneq_run_pre      delete
run 0 post no # mom rev random number
PPPM initialization ...
  using 12-bit tables for long-range coulomb (../kspace.cpp:340)
  G vector (1/distance) = 0.80673798
  grid = 36 36 36
  stencil order = 5
  estimated absolute RMS force accuracy = 8.2278886e-05
  estimated relative force accuracy = 8.2278886e-05
  using single precision KISS FFT
  3d grid and FFT values/proc = 4913 2592
Per MPI rank memory allocation (min/avg/max) = 5.425 | 5.447 | 5.490 Mbytes
Step Temp Atoms Density TotEng PotEng KinEng E_coul E_vdwl E_long Enthalpy Press 
   11600     0.994067     5202     0.752298 -15628.627766 -23383.838987  7755.211220   -61.774267 -23012.855386  -309.209334 -8358.242709     1.051422 
Loop time of 3.11689e-06 on 27 procs for 0 steps with 5202 atoms

######################################################################
pair_style   lj/cut/coul/long/neq 2.500000 3.500000 11600 100 1.000000 5 0 0 1.000000 1.000000 11 1.000000
kspace_style pppm 0.0001

# LJ (neq? True)
# real lj particles
pair_coeff  * *         1.  1.  2.5   # solvent + ions
pair_coeff  4*5 4*5     0   0   2.5   # wall atoms

        
pair_modify  tail no shift yes mix arithmetic # LB mixing rule
neigh_modify delay 2 every 1 check yes page 500000 one 50000
######################################################################
timestep 0.010000
fix  eqmd  noneq_run           nve                 # nve for non-rigid
run 100 # (neq? True) MD run
PPPM initialization ...
  using 12-bit tables for long-range coulomb (../kspace.cpp:340)
  G vector (1/distance) = 0.80673798
  grid = 36 36 36
  stencil order = 5
  estimated absolute RMS force accuracy = 8.2278886e-05
  estimated relative force accuracy = 8.2278886e-05
  using single precision KISS FFT
  3d grid and FFT values/proc = 4913 2592
Neighbor list info ...
  update every 1 steps, delay 2 steps, check yes
  max neighbors/atom: 50000, page size: 500000
[...]
0 atoms in group water
group   ions    type 2 3
202 atoms in group ions
group   wall    type 4 5
0 atoms in group wall
group   flying  type 6 7 8
2 atoms in group flying
group   eq_run  union solvent ions flying
5202 atoms in group eq_run
            
######################################################################
pair_style   lj/cut/coul/long 2.500000 3.500000
kspace_style pppm 0.0001

# LJ (neq? False)
# real lj particles
pair_coeff  * *         1.  1.  2.5   # solvent + ions
pair_coeff  4*5 4*5     0   0   2.5   # wall atoms

        
pair_modify  tail no shift yes mix arithmetic # LB mixing rule
neigh_modify delay 2 every 1 check yes page 500000 one 50000
######################################################################
# dealing with ideal flying particles: force field=simple_lj

# Non-interacting flying lj molecule (trial deletion)
# real lj particles
pair_coeff  * *         1.  1.  2.5   # solvent + ions
pair_coeff  4*5 4*5     0   0   2.5   # wall atoms
# flying particles
pair_coeff  * 6         0   0   2.5   # flying solvent  non-interacting
pair_coeff  * 7         0   0   2.5   # flying cation   non-interacting
pair_coeff  * 8         0   0   2.5   # flying anion    non-interacting

# flying solvetn or ions
set type 6  charge 0.                       # non-interacting
Setting atom values ...
  0 settings made for charge
set type 7  charge 0.                       # non-interacting
Setting atom values ...
  1 settings made for charge
set type 8  charge 0.                       # non-interacting
Setting atom values ...
  1 settings made for charge
        
run 0 post no # making flying moelcule non-interacting
PPPM initialization ...
  using 12-bit tables for long-range coulomb (../kspace.cpp:340)
  G vector (1/distance) = 0.80656374
  grid = 36 36 36
  stencil order = 5
  estimated absolute RMS force accuracy = 8.1571722e-05
  estimated relative force accuracy = 8.1571722e-05
  using single precision KISS FFT
  3d grid and FFT values/proc = 4913 2592
Neighbor list info ...
  update every 1 steps, delay 2 steps, check yes
  max neighbors/atom: 50000, page size: 500000
  master list distance cutoff = 3.8
  ghost atom cutoff = 3.8
  binsize = 1.9, bins = 11 11 11
  1 neighbor lists, perpetual/occasional/extra = 1 0 0
  (1) pair lj/cut/coul/long, perpetual
      attributes: half, newton on
      pair build: half/bin/atomonly/newton
      stencil: half/bin/3d
      bin: standard
Per MPI rank memory allocation (min/avg/max) = 5.425 | 5.447 | 5.490 Mbytes
Step Temp Atoms Density TotEng PotEng KinEng E_coul E_vdwl E_long Enthalpy Press 
   11700     0.994040     5202     0.752298 -15607.896275 -23362.902112  7755.005837   -60.923649 -22993.149544  -308.828919 -8195.614209     1.071943 
Loop time of 2.75648e-06 on 27 procs for 0 steps with 5202 atoms

# done post_propagate after NEMD
# selected salt 5070/5197
#The center of bimodal dist. on a positive side=0.800000
set type 7 type 2
Setting atom values ...
  1 settings made for type
set type 8 type 3
Setting atom values ...
  1 settings made for type
run 0 post no # lj type change (reject_delete)
PPPM initialization ...
  using 12-bit tables for long-range coulomb (../kspace.cpp:340)
  G vector (1/distance) = 0.80656374
  grid = 36 36 36
  stencil order = 5
  estimated absolute RMS force accuracy = 8.1571722e-05
  estimated relative force accuracy = 8.1571722e-05
  using single precision KISS FFT
  3d grid and FFT values/proc = 4913 2592
Per MPI rank memory allocation (min/avg/max) = 5.425 | 5.447 | 5.490 Mbytes
Step Temp Atoms Density TotEng PotEng KinEng E_coul E_vdwl E_long Enthalpy Press 
   11700     0.994040     5202     0.752298 -15191.424591 -22946.430428  7755.005837   -60.923649 -22576.677860  -308.828919 -5853.040545     1.350490 
Loop time of 2.90722e-06 on 27 procs for 0 steps with 5202 atoms

set atom 5070 charge 1.000000
Setting atom values ...
  1 settings made for charge
set atom 5197 charge -1.000000
Setting atom values ...
  1 settings made for charge
run 0 post no # charge return (reject_delete)
PPPM initialization ...
  using 12-bit tables for long-range coulomb (../kspace.cpp:340)
  G vector (1/distance) = 0.80673798
  grid = 36 36 36
  stencil order = 5
  estimated absolute RMS force accuracy = 8.2278886e-05
  estimated relative force accuracy = 8.2278886e-05
  using single precision KISS FFT
  3d grid and FFT values/proc = 4913 2592
Per MPI rank memory allocation (min/avg/max) = 5.425 | 5.447 | 5.490 Mbytes
Step Temp Atoms Density TotEng PotEng KinEng E_coul E_vdwl E_long Enthalpy Press 
   11700     0.994040     5202     0.752298 -15199.220728 -22954.226565  7755.005837   -62.911831 -22576.677860  -314.636874 -5863.435841     1.350115 
Loop time of 2.71315e-06 on 27 procs for 0 steps with 5202 atoms

run 0 post no # return_position back to old
PPPM initialization ...
  using 12-bit tables for long-range coulomb (../kspace.cpp:340)
  G vector (1/distance) = 0.80673798
  grid = 36 36 36
  stencil order = 5
  estimated absolute RMS force accuracy = 8.2278886e-05
  estimated relative force accuracy = 8.2278886e-05
  using single precision KISS FFT
  3d grid and FFT values/proc = 4913 2592
Per MPI rank memory allocation (min/avg/max) = 5.425 | 5.447 | 5.490 Mbytes
Step Temp Atoms Density TotEng PotEng KinEng E_coul E_vdwl E_long Enthalpy Press 
   11700     0.994067     5202     0.752298 -15628.627767 -23383.838987  7755.211220   -61.774267 -23012.855386  -309.209334 -8358.242709     1.051422 
Loop time of 2.58852e-06 on 27 procs for 0 steps with 5202 atoms

group widom_test         delete
group noneq_run          delete
group noneq_run_rigid    delete
reset_timestep 11600

group   solvent delete
group   water   delete
group   ions    delete
group   wall    delete
group   flying  delete
group   eq_run  delete
        

group   solvent type 1
5000 atoms in group solvent
group   water   empty
0 atoms in group water
group   ions    type 2 3
202 atoms in group ions
group   wall    type 4 5
0 atoms in group wall
group   flying  type 6 7 8
0 atoms in group flying
group   eq_run  union solvent ions flying
5202 atoms in group eq_run
            
######################################################################
pair_style   lj/cut/coul/long 2.500000 3.500000
kspace_style pppm 0.0001

# LJ (neq? False)
# real lj particles
pair_coeff  * *         1.  1.  2.5   # solvent + ions
pair_coeff  4*5 4*5     0   0   2.5   # wall atoms

        
pair_modify  tail no shift yes mix arithmetic # LB mixing rule
neigh_modify delay 2 every 1 check yes page 500000 one 50000
######################################################################
# shake is off; should be a dummy run
timestep 0.005000
thermo 2000
fix  eqmd   eq_run nvt temp 1.000000 1.000000 0.500000
run 0 # (neq? False) MD run
PPPM initialization ...
  using 12-bit tables for long-range coulomb (../kspace.cpp:340)
  G vector (1/distance) = 0.80673798
  grid = 36 36 36
  stencil order = 5
  estimated absolute RMS force accuracy = 8.2278886e-05
  estimated relative force accuracy = 8.2278886e-05
  using single precision KISS FFT
  3d grid and FFT values/proc = 4913 2592
Per MPI rank memory allocation (min/avg/max) = 5.425 | 5.447 | 5.490 Mbytes
Step Temp Atoms Density TotEng PotEng KinEng E_coul E_vdwl E_long Enthalpy Press 
   11600     0.994067     5202     0.752298 -15628.627767 -23383.838987  7755.211220   -61.774267 -23012.855386  -309.209334 -8358.242709     1.051422 
Loop time of 3.14911e-06 on 27 procs for 0 steps with 5202 atoms

4.7% CPU use with 27 MPI tasks x no OpenMP threads

MPI task timing breakdown:
Section |  min time  |  avg time  |  max time  |%varavg| %total
---------------------------------------------------------------
Pair    | 0          | 0          | 0          |   0.0 |  0.00
Kspace  | 0          | 0          | 0          |   0.0 |  0.00
Neigh   | 0          | 0          | 0          |   0.0 |  0.00
Comm    | 0          | 0          | 0          |   0.0 |  0.00
Output  | 0          | 0          | 0          |   0.0 |  0.00
Modify  | 0          | 0          | 0          |   0.0 |  0.00
Other   |            | 3.149e-06  |            |       |100.00

Nlocal:        192.667 ave         208 max         181 min
Histogram: 1 2 6 3 7 4 0 3 0 1
Nghost:        1847.89 ave        1870 max        1824 min
Histogram: 1 3 0 3 4 6 4 3 1 2
Neighs:        16524.0 ave       18140 max       15520 min
Histogram: 4 3 5 3 2 6 1 0 2 1

Total # of neighbors = 446147
Ave neighs/atom = 85.764514
Neighbor list builds = 0
Dangerous builds = 0
unfix    eqmd
#chosen_cation deletion_move -1.124995 6.922510 -2.518467 # select_molecule
#chosen_anion deletion_move 0.084901 6.428801 -2.760206 # select_molecule
# selected_velocity_salt 5095 cation vel -0.337826 0.111216 -0.075876
# selected_velocity_salt 5127 anion vel 2.024363 -0.708897 1.395344
group widom_test id  5095 5127 # select_molecule
2 atoms in group widom_test
set atom 5095 type 7
Setting atom values ...
  1 settings made for type
set atom 5127 type 8
Setting atom values ...
  1 settings made for type
run 0 post no # done selecting a flying molecule
PPPM initialization ...
  using 12-bit tables for long-range coulomb (../kspace.cpp:340)
  G vector (1/distance) = 0.80673798
  grid = 36 36 36
  stencil order = 5
  estimated absolute RMS force accuracy = 8.2278886e-05
  estimated relative force accuracy = 8.2278886e-05
  using single precision KISS FFT
  3d grid and FFT values/proc = 4913 2592
Per MPI rank memory allocation (min/avg/max) = 5.425 | 5.447 | 5.490 Mbytes
Step Temp Atoms Density TotEng PotEng KinEng E_coul E_vdwl E_long Enthalpy Press 
   11600     0.994067     5202     0.752298 -15628.627767 -23383.838987  7755.211220   -61.774267 -23012.855386  -309.209334 -8358.242709     1.051422 
Loop time of 3.15207e-06 on 27 procs for 0 steps with 5202 atoms

group noneq_run_rigid    intersect   all         water               # select_salt no selection
0 atoms in group noneq_run_rigid
group noneq_run_pre      subtract    all         noneq_run_rigid     # select_salt no selection
5202 atoms in group noneq_run_pre
group noneq_run          subtract    noneq_run_pre   widom_test      # select_salt no selection
5200 atoms in group noneq_run
group noneq_run_pre      delete
run 0 post no # mom rev random number
PPPM initialization ...
  using 12-bit tables for long-range coulomb (../kspace.cpp:340)
  G vector (1/distance) = 0.80673798
  grid = 36 36 36
  stencil order = 5
  estimated absolute RMS force accuracy = 8.2278886e-05
  estimated relative force accuracy = 8.2278886e-05
  using single precision KISS FFT
  3d grid and FFT values/proc = 4913 2592
Per MPI rank memory allocation (min/avg/max) = 5.425 | 5.447 | 5.490 Mbytes
Step Temp Atoms Density TotEng PotEng KinEng E_coul E_vdwl E_long Enthalpy Press 
   11600     0.994067     5202     0.752298 -15628.627767 -23383.838987  7755.211220   -61.774267 -23012.855386  -309.209334 -8358.242709     1.051422 
Loop time of 3.02333e-06 on 27 procs for 0 steps with 5202 atoms

######################################################################
pair_style   lj/cut/coul/long/neq 2.500000 3.500000 11600 100 1.000000 5 0 0 1.000000 1.000000 11 1.000000
kspace_style pppm 0.0001

# LJ (neq? True)
# real lj particles
pair_coeff  * *         1.  1.  2.5   # solvent + ions
pair_coeff  4*5 4*5     0   0   2.5   # wall atoms

        
pair_modify  tail no shift yes mix arithmetic # LB mixing rule
neigh_modify delay 2 every 1 check yes page 500000 one 50000
######################################################################
timestep 0.010000
fix  eqmd  noneq_run           nve                 # nve for non-rigid
run 100 # (neq? True) MD run
PPPM initialization ...
  using 12-bit tables for long-range coulomb (../kspace.cpp:340)
  G vector (1/distance) = 0.80673798
  grid = 36 36 36
  stencil order = 5
  estimated absolute RMS force accuracy = 8.2278886e-05
  estimated relative force accuracy = 8.2278886e-05
  using single precision KISS FFT
  3d grid and FFT values/proc = 4913 2592
Neighbor list info ...
  update every 1 steps, delay 2 steps, check yes
  max neighbors/atom: 50000, page size: 500000
  master list distance cutoff = 3.8
  ghost atom cutoff = 3.8
  binsize = 1.9, bins = 11 11 11
  1 neighbor lists, perpetual/occasional/extra = 1 0 0
  (1) pair lj/cut/coul/long/neq, perpetual
      attributes: half, newton on
      pair build: half/bin/atomonly/newton
      stencil: half/bin/3d
      bin: standard
Per MPI rank memory allocation (min/avg/max) = 5.425 | 5.447 | 5.490 Mbytes
Step Temp Atoms Density TotEng PotEng KinEng E_coul E_vdwl E_long Enthalpy Press 
   11600     0.994067     5202     0.752298 -15628.627767 -23383.838987  7755.211220   -61.774267 -23012.855386  -309.209334 -8358.242709     1.051422 
   11700     0.996642     5202     0.752298 -15629.969006 -23405.268644  7775.299638   -62.665635 -23027.648196  -314.954814 -8320.378565     1.057092 
Loop time of 0.309294 on 27 procs for 100 steps with 5202 atoms

Performance: 279345.504 tau/day, 323.317 timesteps/s
92.7% CPU use with 27 MPI tasks x no OpenMP threads

MPI task timing breakdown:
Section |  min time  |  avg time  |  max time  |%varavg| %total
---------------------------------------------------------------
Pair    | 0.057821   | 0.095707   | 0.1132     |   5.4 | 30.94
Kspace  | 0.15534    | 0.17487    | 0.21509    |   4.2 | 56.54
Neigh   | 0.014353   | 0.021179   | 0.024174   |   2.1 |  6.85
Comm    | 0.013436   | 0.015411   | 0.019698   |   1.6 |  4.98
Output  | 5.3949e-05 | 6.4879e-05 | 0.00018789 |   0.0 |  0.02
Modify  | 0.00035625 | 0.00054442 | 0.0006639  |   0.0 |  0.18
Other   |            | 0.001518   |            |       |  0.49

Nlocal:        192.667 ave         209 max         183 min
Histogram: 4 1 6 6 2 4 2 1 0 1
Nghost:        1851.63 ave        1880 max        1812 min
Histogram: 1 0 1 4 1 6 7 3 3 1
Neighs:        16521.3 ave       18620 max       15330 min
Histogram: 3 6 3 2 6 1 4 1 0 1

Total # of neighbors = 446074
Ave neighs/atom = 85.750481
Neighbor list builds = 25
Dangerous builds = 0
unfix    eqmd

group   solvent type 1
5000 atoms in group solvent
group   water   empty
0 atoms in group water
group   ions    type 2 3
202 atoms in group ions
group   wall    type 4 5
0 atoms in group wall
group   flying  type 6 7 8
2 atoms in group flying
group   eq_run  union solvent ions flying
5202 atoms in group eq_run
            
######################################################################
pair_style   lj/cut/coul/long 2.500000 3.500000
kspace_style pppm 0.0001

# LJ (neq? False)
# real lj particles
pair_coeff  * *         1.  1.  2.5   # solvent + ions
pair_coeff  4*5 4*5     0   0   2.5   # wall atoms

        
pair_modify  tail no shift yes mix arithmetic # LB mixing rule
neigh_modify delay 2 every 1 check yes page 500000 one 50000
######################################################################
# dealing with ideal flying particles: force field=simple_lj

# Non-interacting flying lj molecule (trial deletion)
# real lj particles
pair_coeff  * *         1.  1.  2.5   # solvent + ions
pair_coeff  4*5 4*5     0   0   2.5   # wall atoms
# flying particles
pair_coeff  * 6         0   0   2.5   # flying solvent  non-interacting
pair_coeff  * 7         0   0   2.5   # flying cation   non-interacting
pair_coeff  * 8         0   0   2.5   # flying anion    non-interacting

# flying solvetn or ions
set type 6  charge 0.                       # non-interacting
Setting atom values ...
  0 settings made for charge
set type 7  charge 0.                       # non-interacting
Setting atom values ...
  1 settings made for charge
set type 8  charge 0.                       # non-interacting
Setting atom values ...
  1 settings made for charge
        
run 0 post no # making flying moelcule non-interacting
PPPM initialization ...
  using 12-bit tables for long-range coulomb (../kspace.cpp:340)
  G vector (1/distance) = 0.80656374
  grid = 36 36 36
  stencil order = 5
  estimated absolute RMS force accuracy = 8.1571722e-05
  estimated relative force accuracy = 8.1571722e-05
  using single precision KISS FFT
  3d grid and FFT values/proc = 4913 2592
Neighbor list info ...
  update every 1 steps, delay 2 steps, check yes
  max neighbors/atom: 50000, page size: 500000
  master list distance cutoff = 3.8
  ghost atom cutoff = 3.8
  binsize = 1.9, bins = 11 11 11
  1 neighbor lists, perpetual/occasional/extra = 1 0 0
  (1) pair lj/cut/coul/long, perpetual
      attributes: half, newton on
      pair build: half/bin/atomonly/newton
      stencil: half/bin/3d
      bin: standard
Per MPI rank memory allocation (min/avg/max) = 5.425 | 5.447 | 5.490 Mbytes
Step Temp Atoms Density TotEng PotEng KinEng E_coul E_vdwl E_long Enthalpy Press 
   11700     0.996642     5202     0.752298 -15616.550038 -23391.849676  7775.299638   -62.638935 -23017.013936  -312.196805 -8295.014111     1.058820 
Loop time of 2.81622e-06 on 27 procs for 0 steps with 5202 atoms

# done post_propagate after NEMD
# selected salt 5095/5127
#The center of bimodal dist. on a positive side=0.800000
set type 7 type 2
Setting atom values ...
  1 settings made for type
set type 8 type 3
Setting atom values ...
  1 settings made for type
run 0 post no # lj type change (reject_delete)
PPPM initialization ...
  using 12-bit tables for long-range coulomb (../kspace.cpp:340)
  G vector (1/distance) = 0.80656374
  grid = 36 36 36
  stencil order = 5
  estimated absolute RMS force accuracy = 8.1571722e-05
  estimated relative force accuracy = 8.1571722e-05
  using single precision KISS FFT
  3d grid and FFT values/proc = 4913 2592
Per MPI rank memory allocation (min/avg/max) = 5.425 | 5.447 | 5.490 Mbytes
Step Temp Atoms Density TotEng PotEng KinEng E_coul E_vdwl E_long Enthalpy Press 
   11700     0.996642     5202     0.752298 -3548.341022 -11323.640660  7775.299638   -62.638935 -10948.804920  -312.196805 52830.560964     8.153356 
Loop time of 3.12281e-06 on 27 procs for 0 steps with 5202 atoms

set atom 5095 charge 1.000000
Setting atom values ...
  1 settings made for charge
set atom 5127 charge -1.000000
Setting atom values ...
  1 settings made for charge
run 0 post no # charge return (reject_delete)
PPPM initialization ...
  using 12-bit tables for long-range coulomb (../kspace.cpp:340)
  G vector (1/distance) = 0.80673798
  grid = 36 36 36
  stencil order = 5
  estimated absolute RMS force accuracy = 8.2278886e-05
  estimated relative force accuracy = 8.2278886e-05
  using single precision KISS FFT
  3d grid and FFT values/proc = 4913 2592
Per MPI rank memory allocation (min/avg/max) = 5.425 | 5.447 | 5.490 Mbytes
Step Temp Atoms Density TotEng PotEng KinEng E_coul E_vdwl E_long Enthalpy Press 
   11700     0.996642     5202     0.752298 -3551.504251 -11326.803889  7775.299638   -63.044156 -10948.804920  -314.954814 52826.342179     8.153203 
Loop time of 2.85144e-06 on 27 procs for 0 steps with 5202 atoms

run 0 post no # return_position back to old
PPPM initialization ...
  using 12-bit tables for long-range coulomb (../kspace.cpp:340)
  G vector (1/distance) = 0.80673798
  grid = 36 36 36
  stencil order = 5
  estimated absolute RMS force accuracy = 8.2278886e-05
  estimated relative force accuracy = 8.2278886e-05
  using single precision KISS FFT
  3d grid and FFT values/proc = 4913 2592
Per MPI rank memory allocation (min/avg/max) = 5.425 | 5.447 | 5.490 Mbytes
Step Temp Atoms Density TotEng PotEng KinEng E_coul E_vdwl E_long Enthalpy Press 
   11700     0.994067     5202     0.752298 -15628.627767 -23383.838987  7755.211220   -61.774267 -23012.855386  -309.209334 -8358.242709     1.051422 
Loop time of 2.78889e-06 on 27 procs for 0 steps with 5202 atoms

group widom_test         delete
group noneq_run          delete
group noneq_run_rigid    delete
reset_timestep 11600

group   solvent delete
group   water   delete
group   ions    delete
group   wall    delete
group   flying  delete
group   eq_run  delete
        
log logfile_hneqMDMC.4
