
group   solvent type 1
5000 atoms in group solvent
group   water   empty
0 atoms in group water
group   ions    type 2 3
202 atoms in group ions
group   wall    type 4 5
0 atoms in group wall
group   flying  type 6 7 8
0 atoms in group flying
group   eq_run  union solvent ions flying
5202 atoms in group eq_run
            
######################################################################
pair_style   lj/cut/coul/long 2.500000 3.500000
kspace_style pppm 0.0001

# LJ (neq? False)
# real lj particles
pair_coeff  * *         1.  1.  2.5   # solvent + ions
pair_coeff  4*5 4*5     0   0   2.5   # wall atoms

        
pair_modify  tail no shift yes mix arithmetic # LB mixing rule
neigh_modify delay 2 every 1 check yes page 500000 one 50000
######################################################################
timestep 0.005000
thermo 2000
fix  eqmd   eq_run nvt temp 1.000000 1.000000 0.500000
run 400 # (neq? False) MD run
PPPM initialization ...
  using 12-bit tables for long-range coulomb (../kspace.cpp:340)
  G vector (1/distance) = 0.80673798
  grid = 36 36 36
  stencil order = 5
  estimated absolute RMS force accuracy = 8.2278886e-05
  estimated relative force accuracy = 8.2278886e-05
  using single precision KISS FFT
  3d grid and FFT values/proc = 4913 2592
Per MPI rank memory allocation (min/avg/max) = 5.425 | 5.448 | 5.491 Mbytes
Step Temp Atoms Density TotEng PotEng KinEng E_coul E_vdwl E_long Enthalpy Press 
   10000     0.996469     5202     0.752298 -15620.659818 -23394.615025  7773.955207   -59.831502 -23023.149591  -311.633933 -8207.095382     1.072129 
   10400     0.998017     5202     0.752298 -15622.805824 -23408.831649  7786.025825   -54.089367 -23058.446562  -296.295720 -8511.179769     1.028463 
Loop time of 1.17006 on 27 procs for 400 steps with 5202 atoms

Performance: 147684.596 tau/day, 341.862 timesteps/s
93.3% CPU use with 27 MPI tasks x no OpenMP threads

MPI task timing breakdown:
Section |  min time  |  avg time  |  max time  |%varavg| %total
---------------------------------------------------------------
Pair    | 0.22644    | 0.3718     | 0.42836    |  10.6 | 31.78
Kspace  | 0.62484    | 0.68384    | 0.8256     |   7.6 | 58.45
Neigh   | 0.032844   | 0.048305   | 0.055998   |   3.3 |  4.13
Comm    | 0.046844   | 0.05438    | 0.072743   |   3.5 |  4.65
Output  | 5.1811e-05 | 5.4012e-05 | 7.6775e-05 |   0.0 |  0.00
Modify  | 0.0053754  | 0.0077599  | 0.011301   |   1.8 |  0.66
Other   |            | 0.003924   |            |       |  0.34

Nlocal:        192.667 ave         200 max         183 min
Histogram: 2 1 2 2 3 4 2 6 2 3
Nghost:        1851.44 ave        1868 max        1834 min
Histogram: 1 3 2 5 1 4 6 1 2 2
Neighs:        16523.8 ave       17490 max       15247 min
Histogram: 2 0 2 2 3 3 8 3 2 2

Total # of neighbors = 446143
Ave neighs/atom = 85.763745
Neighbor list builds = 55
Dangerous builds = 0
unfix    eqmd

group   solvent type 1
5000 atoms in group solvent
group   water   empty
0 atoms in group water
group   ions    type 2 3
202 atoms in group ions
group   wall    type 4 5
0 atoms in group wall
group   flying  type 6 7 8
0 atoms in group flying
group   eq_run  union solvent ions flying
5202 atoms in group eq_run
            
######################################################################
pair_style   lj/cut/coul/long 2.500000 3.500000
kspace_style pppm 0.0001

# LJ (neq? False)
# real lj particles
pair_coeff  * *         1.  1.  2.5   # solvent + ions
pair_coeff  4*5 4*5     0   0   2.5   # wall atoms

        
pair_modify  tail no shift yes mix arithmetic # LB mixing rule
neigh_modify delay 2 every 1 check yes page 500000 one 50000
######################################################################
# shake is off; should be a dummy run
timestep 0.005000
thermo 2000
fix  eqmd   eq_run nvt temp 1.000000 1.000000 0.500000
run 0 # (neq? False) MD run
PPPM initialization ...
  using 12-bit tables for long-range coulomb (../kspace.cpp:340)
  G vector (1/distance) = 0.80673798
  grid = 36 36 36
  stencil order = 5
  estimated absolute RMS force accuracy = 8.2278886e-05
  estimated relative force accuracy = 8.2278886e-05
  using single precision KISS FFT
  3d grid and FFT values/proc = 4913 2592
Per MPI rank memory allocation (min/avg/max) = 5.425 | 5.448 | 5.491 Mbytes
Step Temp Atoms Density TotEng PotEng KinEng E_coul E_vdwl E_long Enthalpy Press 
   10400     0.998017     5202     0.752298 -15622.805823 -23408.831648  7786.025825   -54.089367 -23058.446562  -296.295720 -8511.179769     1.028463 
Loop time of 2.87293e-06 on 27 procs for 0 steps with 5202 atoms

126.3% CPU use with 27 MPI tasks x no OpenMP threads

MPI task timing breakdown:
Section |  min time  |  avg time  |  max time  |%varavg| %total
---------------------------------------------------------------
Pair    | 0          | 0          | 0          |   0.0 |  0.00
Kspace  | 0          | 0          | 0          |   0.0 |  0.00
Neigh   | 0          | 0          | 0          |   0.0 |  0.00
Comm    | 0          | 0          | 0          |   0.0 |  0.00
Output  | 0          | 0          | 0          |   0.0 |  0.00
Modify  | 0          | 0          | 0          |   0.0 |  0.00
Other   |            | 2.873e-06  |            |       |100.00

Nlocal:        192.667 ave         198 max         179 min
Histogram: 1 0 0 2 1 2 5 4 7 5
Nghost:        1850.70 ave        1873 max        1837 min
Histogram: 3 4 4 5 3 2 3 1 1 1
Neighs:        16522.8 ave       17287 max       15044 min
Histogram: 1 1 0 1 2 6 3 4 4 5

Total # of neighbors = 446116
Ave neighs/atom = 85.758554
Neighbor list builds = 0
Dangerous builds = 0
unfix    eqmd
#chosen_cation deletion_move -7.616665 -8.172641 -4.975043 # select_molecule
#chosen_anion deletion_move -7.623357 9.392242 -4.479078 # select_molecule
# selected_velocity_salt 5081 cation vel 0.182681 0.365777 -1.115405
# selected_velocity_salt 5139 anion vel -0.302940 -0.350980 -0.127556
group widom_test id  5081 5139 # select_molecule
2 atoms in group widom_test
set atom 5081 type 7
Setting atom values ...
  1 settings made for type
set atom 5139 type 8
Setting atom values ...
  1 settings made for type
run 0 post no # done selecting a flying molecule
WARNING: No fixes defined, atoms won't move (../verlet.cpp:55)
PPPM initialization ...
  using 12-bit tables for long-range coulomb (../kspace.cpp:340)
  G vector (1/distance) = 0.80673798
  grid = 36 36 36
  stencil order = 5
  estimated absolute RMS force accuracy = 8.2278886e-05
  estimated relative force accuracy = 8.2278886e-05
  using single precision KISS FFT
  3d grid and FFT values/proc = 4913 2592
Per MPI rank memory allocation (min/avg/max) = 5.425 | 5.448 | 5.491 Mbytes
Step Temp Atoms Density TotEng PotEng KinEng E_coul E_vdwl E_long Enthalpy Press 
   10400     0.998017     5202     0.752298 -15622.805823 -23408.831648  7786.025825   -54.089367 -23058.446562  -296.295720 -8511.179769     1.028463 
Loop time of 2.60596e-06 on 27 procs for 0 steps with 5202 atoms

group noneq_run_rigid    intersect   all         water               # select_salt no selection
0 atoms in group noneq_run_rigid
group noneq_run_pre      subtract    all         noneq_run_rigid     # select_salt no selection
5202 atoms in group noneq_run_pre
group noneq_run          subtract    noneq_run_pre   widom_test      # select_salt no selection
5200 atoms in group noneq_run
group noneq_run_pre      delete
run 0 post no # mom rev random number
WARNING: No fixes defined, atoms won't move (../verlet.cpp:55)
PPPM initialization ...
  using 12-bit tables for long-range coulomb (../kspace.cpp:340)
  G vector (1/distance) = 0.80673798
  grid = 36 36 36
  stencil order = 5
  estimated absolute RMS force accuracy = 8.2278886e-05
  estimated relative force accuracy = 8.2278886e-05
  using single precision KISS FFT
  3d grid and FFT values/proc = 4913 2592
Per MPI rank memory allocation (min/avg/max) = 5.425 | 5.448 | 5.491 Mbytes
Step Temp Atoms Density TotEng PotEng KinEng E_coul E_vdwl E_long Enthalpy Press 
   10400     0.998017     5202     0.752298 -15622.805823 -23408.831648  7786.025825   -54.089367 -23058.446562  -296.295720 -8511.179769     1.028463 
Loop time of 2.93137e-06 on 27 procs for 0 steps with 5202 atoms

######################################################################
pair_style   lj/cut/coul/long/neq 2.500000 3.500000 10400 100 1.000000 5 0 0 1.000000 1.000000 11 1.000000
kspace_style pppm 0.0001

# LJ (neq? True)
# real lj particles
pair_coeff  * *         1.  1.  2.5   # solvent + ions
pair_coeff  4*5 4*5     0   0   2.5   # wall atoms

        
pair_modify  tail no shift yes mix arithmetic # LB mixing rule
neigh_modify delay 2 every 1 check yes page 500000 one 50000
######################################################################
timestep 0.010000
fix  eqmd  noneq_run           nve                 # nve for non-rigid
run 100 # (neq? True) MD run
PPPM initialization ...
  using 12-bit tables for long-range coulomb (../kspace.cpp:340)
  G vector (1/distance) = 0.80673798
  grid = 36 36 36
  stencil order = 5
  estimated absolute RMS force accuracy = 8.2278886e-05
  estimated relative force accuracy = 8.2278886e-05
  using single precision KISS FFT
  3d grid and FFT values/proc = 4913 2592
Neighbor list info ...
  update every 1 steps, delay 2 steps, check yes
  max neighbors/atom: 50000, page size: 500000
  master list distance cutoff = 3.8
  ghost atom cutoff = 3.8
  binsize = 1.9, bins = 11 11 11
  1 neighbor lists, perpetual/occasional/extra = 1 0 0
  (1) pair lj/cut/coul/long/neq, perpetual
      attributes: half, newton on
      pair build: half/bin/atomonly/newton
      stencil: half/bin/3d
      bin: standard
Per MPI rank memory allocation (min/avg/max) = 5.425 | 5.447 | 5.490 Mbytes
Step Temp Atoms Density TotEng PotEng KinEng E_coul E_vdwl E_long Enthalpy Press 
   10400     0.998017     5202     0.752298 -15622.805823 -23408.831648  7786.025825   -54.089367 -23058.446562  -296.295720 -8511.179769     1.028463 
   10500     0.985449     5202     0.752298 -15614.584084 -23302.566506  7687.982422   -55.814999 -22951.559190  -295.192317 -7987.608316     1.102991 
Loop time of 0.305046 on 27 procs for 100 steps with 5202 atoms

Performance: 283235.703 tau/day, 327.819 timesteps/s
93.8% CPU use with 27 MPI tasks x no OpenMP threads

MPI task timing breakdown:
Section |  min time  |  avg time  |  max time  |%varavg| %total
---------------------------------------------------------------
Pair    | 0.061515   | 0.095399   | 0.10745    |   5.2 | 31.27
Kspace  | 0.15471    | 0.16899    | 0.20524    |   4.2 | 55.40
Neigh   | 0.015966   | 0.023111   | 0.026197   |   2.1 |  7.58
Comm    | 0.014036   | 0.015531   | 0.01987    |   1.6 |  5.09
Output  | 5.4439e-05 | 6.1017e-05 | 8.5703e-05 |   0.0 |  0.02
Modify  | 0.00034651 | 0.00055291 | 0.00070305 |   0.0 |  0.18
Other   |            | 0.001399   |            |       |  0.46

Nlocal:        192.667 ave         202 max         183 min
Histogram: 1 3 4 1 5 3 2 2 5 1
Nghost:        1852.74 ave        1873 max        1834 min
Histogram: 2 1 4 4 5 2 2 4 2 1
Neighs:        16534.1 ave       18038 max       15232 min
Histogram: 2 1 4 4 3 5 5 1 1 1

Total # of neighbors = 446421
Ave neighs/atom = 85.817186
Neighbor list builds = 27
Dangerous builds = 0
unfix    eqmd

group   solvent type 1
5000 atoms in group solvent
group   water   empty
0 atoms in group water
group   ions    type 2 3
202 atoms in group ions
group   wall    type 4 5
0 atoms in group wall
group   flying  type 6 7 8
2 atoms in group flying
group   eq_run  union solvent ions flying
5202 atoms in group eq_run
            
######################################################################
pair_style   lj/cut/coul/long 2.500000 3.500000
kspace_style pppm 0.0001

# LJ (neq? False)
# real lj particles
pair_coeff  * *         1.  1.  2.5   # solvent + ions
pair_coeff  4*5 4*5     0   0   2.5   # wall atoms

        
pair_modify  tail no shift yes mix arithmetic # LB mixing rule
neigh_modify delay 2 every 1 check yes page 500000 one 50000
######################################################################
# dealing with ideal flying particles: force field=simple_lj

# Non-interacting flying lj molecule (trial deletion)
# real lj particles
pair_coeff  * *         1.  1.  2.5   # solvent + ions
pair_coeff  4*5 4*5     0   0   2.5   # wall atoms
# flying particles
pair_coeff  * 6         0   0   2.5   # flying solvent  non-interacting
pair_coeff  * 7         0   0   2.5   # flying cation   non-interacting
pair_coeff  * 8         0   0   2.5   # flying anion    non-interacting

# flying solvetn or ions
set type 6  charge 0.                       # non-interacting
Setting atom values ...
  0 settings made for charge
set type 7  charge 0.                       # non-interacting
Setting atom values ...
  1 settings made for charge
set type 8  charge 0.                       # non-interacting
Setting atom values ...
  1 settings made for charge
        
run 0 post no # making flying moelcule non-interacting
WARNING: No fixes defined, atoms won't move (../verlet.cpp:55)
PPPM initialization ...
  using 12-bit tables for long-range coulomb (../kspace.cpp:340)
  G vector (1/distance) = 0.80656374
  grid = 36 36 36
  stencil order = 5
  estimated absolute RMS force accuracy = 8.1571722e-05
  estimated relative force accuracy = 8.1571722e-05
  using single precision KISS FFT
  3d grid and FFT values/proc = 4913 2592
Neighbor list info ...
  update every 1 steps, delay 2 steps, check yes
  max neighbors/atom: 50000, page size: 500000
  master list distance cutoff = 3.8
  ghost atom cutoff = 3.8
  binsize = 1.9, bins = 11 11 11
  1 neighbor lists, perpetual/occasional/extra = 1 0 0
  (1) pair lj/cut/coul/long, perpetual
      attributes: half, newton on
      pair build: half/bin/atomonly/newton
      stencil: half/bin/3d
      bin: standard
Per MPI rank memory allocation (min/avg/max) = 5.425 | 5.447 | 5.490 Mbytes
Step Temp Atoms Density TotEng PotEng KinEng E_coul E_vdwl E_long Enthalpy Press 
   10500     0.985449     5202     0.752298 -15603.511365 -23291.493788  7687.982422   -55.810960 -22942.999724  -292.683104 -7966.176777     1.104490 
Loop time of 2.56544e-06 on 27 procs for 0 steps with 5202 atoms

# done post_propagate after NEMD
# selected salt 5081/5139
#The center of bimodal dist. on a positive side=0.800000
set type 7 type 2
Setting atom values ...
  1 settings made for type
set type 8 type 3
Setting atom values ...
  1 settings made for type
run 0 post no # lj type change (reject_delete)
WARNING: No fixes defined, atoms won't move (../verlet.cpp:55)
PPPM initialization ...
  using 12-bit tables for long-range coulomb (../kspace.cpp:340)
  G vector (1/distance) = 0.80656374
  grid = 36 36 36
  stencil order = 5
  estimated absolute RMS force accuracy = 8.1571722e-05
  estimated relative force accuracy = 8.1571722e-05
  using single precision KISS FFT
  3d grid and FFT values/proc = 4913 2592
Per MPI rank memory allocation (min/avg/max) = 5.425 | 5.447 | 5.490 Mbytes
Step Temp Atoms Density TotEng PotEng KinEng E_coul E_vdwl E_long Enthalpy Press 
   10500     0.985449     5202     0.752298 -8743.548442 -16431.530864  7687.982422   -55.810960 -16083.036800  -292.683104 26861.870116     5.149154 
Loop time of 2.87011e-06 on 27 procs for 0 steps with 5202 atoms

set atom 5081 charge 1.000000
Setting atom values ...
  1 settings made for charge
set atom 5139 charge -1.000000
Setting atom values ...
  1 settings made for charge
run 0 post no # charge return (reject_delete)
WARNING: No fixes defined, atoms won't move (../verlet.cpp:55)
PPPM initialization ...
  using 12-bit tables for long-range coulomb (../kspace.cpp:340)
  G vector (1/distance) = 0.80673798
  grid = 36 36 36
  stencil order = 5
  estimated absolute RMS force accuracy = 8.2278886e-05
  estimated relative force accuracy = 8.2278886e-05
  using single precision KISS FFT
  3d grid and FFT values/proc = 4913 2592
Per MPI rank memory allocation (min/avg/max) = 5.425 | 5.447 | 5.490 Mbytes
Step Temp Atoms Density TotEng PotEng KinEng E_coul E_vdwl E_long Enthalpy Press 
   10500     0.985449     5202     0.752298 -8746.261605 -16434.244028  7687.982422   -56.014910 -16083.036800  -295.192317 26858.254350     5.149024 
Loop time of 2.78419e-06 on 27 procs for 0 steps with 5202 atoms

run 0 post no # return_position back to old
WARNING: No fixes defined, atoms won't move (../verlet.cpp:55)
PPPM initialization ...
  using 12-bit tables for long-range coulomb (../kspace.cpp:340)
  G vector (1/distance) = 0.80673798
  grid = 36 36 36
  stencil order = 5
  estimated absolute RMS force accuracy = 8.2278886e-05
  estimated relative force accuracy = 8.2278886e-05
  using single precision KISS FFT
  3d grid and FFT values/proc = 4913 2592
Per MPI rank memory allocation (min/avg/max) = 5.425 | 5.447 | 5.490 Mbytes
Step Temp Atoms Density TotEng PotEng KinEng E_coul E_vdwl E_long Enthalpy Press 
   10500     0.998017     5202     0.752298 -15622.805824 -23408.831649  7786.025825   -54.089367 -23058.446562  -296.295720 -8511.179769     1.028463 
Loop time of 2.73541e-06 on 27 procs for 0 steps with 5202 atoms

group widom_test         delete
group noneq_run          delete
group noneq_run_rigid    delete
reset_timestep 10400

group   solvent delete
group   water   delete
group   ions    delete
group   wall    delete
group   flying  delete
group   eq_run  delete
        

group   solvent type 1
5000 atoms in group solvent
group   water   empty
0 atoms in group water
group   ions    type 2 3
202 atoms in group ions
group   wall    type 4 5
0 atoms in group wall
group   flying  type 6 7 8
0 atoms in group flying
group   eq_run  union solvent ions flying
5202 atoms in group eq_run
            
######################################################################
pair_style   lj/cut/coul/long 2.500000 3.500000
kspace_style pppm 0.0001

# LJ (neq? False)
# real lj particles
pair_coeff  * *         1.  1.  2.5   # solvent + ions
pair_coeff  4*5 4*5     0   0   2.5   # wall atoms

        
pair_modify  tail no shift yes mix arithmetic # LB mixing rule
neigh_modify delay 2 every 1 check yes page 500000 one 50000
######################################################################
# shake is off; should be a dummy run
timestep 0.005000
thermo 2000
fix  eqmd   eq_run nvt temp 1.000000 1.000000 0.500000
run 0 # (neq? False) MD run
PPPM initialization ...
  using 12-bit tables for long-range coulomb (../kspace.cpp:340)
  G vector (1/distance) = 0.80673798
  grid = 36 36 36
  stencil order = 5
  estimated absolute RMS force accuracy = 8.2278886e-05
  estimated relative force accuracy = 8.2278886e-05
  using single precision KISS FFT
  3d grid and FFT values/proc = 4913 2592
Per MPI rank memory allocation (min/avg/max) = 5.425 | 5.447 | 5.490 Mbytes
Step Temp Atoms Density TotEng PotEng KinEng E_coul E_vdwl E_long Enthalpy Press 
   10400     0.998017     5202     0.752298 -15622.805824 -23408.831649  7786.025825   -54.089367 -23058.446562  -296.295720 -8511.179769     1.028463 
Loop time of 3.09567e-06 on 27 procs for 0 steps with 5202 atoms

136.4% CPU use with 27 MPI tasks x no OpenMP threads

MPI task timing breakdown:
Section |  min time  |  avg time  |  max time  |%varavg| %total
---------------------------------------------------------------
Pair    | 0          | 0          | 0          |   0.0 |  0.00
Kspace  | 0          | 0          | 0          |   0.0 |  0.00
Neigh   | 0          | 0          | 0          |   0.0 |  0.00
Comm    | 0          | 0          | 0          |   0.0 |  0.00
Output  | 0          | 0          | 0          |   0.0 |  0.00
Modify  | 0          | 0          | 0          |   0.0 |  0.00
Other   |            | 3.096e-06  |            |       |100.00

Nlocal:        192.667 ave         198 max         179 min
Histogram: 1 0 0 2 1 2 5 4 7 5
Nghost:        1850.70 ave        1873 max        1837 min
Histogram: 3 4 4 5 3 2 3 1 1 1
Neighs:        16522.8 ave       17287 max       15044 min
Histogram: 1 1 0 1 2 6 3 4 4 5

Total # of neighbors = 446116
Ave neighs/atom = 85.758554
Neighbor list builds = 0
Dangerous builds = 0
unfix    eqmd
#chosen_cation deletion_move 3.836129 6.451067 4.438404 # select_molecule
#chosen_anion deletion_move 4.347243 5.648456 4.061815 # select_molecule
# selected_velocity_salt 5090 cation vel 1.062234 1.453549 -0.203419
# selected_velocity_salt 5123 anion vel 0.377069 -1.731149 0.152417
group widom_test id  5090 5123 # select_molecule
2 atoms in group widom_test
set atom 5090 type 7
Setting atom values ...
  1 settings made for type
set atom 5123 type 8
Setting atom values ...
  1 settings made for type
run 0 post no # done selecting a flying molecule
WARNING: No fixes defined, atoms won't move (../verlet.cpp:55)
PPPM initialization ...
  using 12-bit tables for long-range coulomb (../kspace.cpp:340)
  G vector (1/distance) = 0.80673798
  grid = 36 36 36
  stencil order = 5
  estimated absolute RMS force accuracy = 8.2278886e-05
  estimated relative force accuracy = 8.2278886e-05
  using single precision KISS FFT
  3d grid and FFT values/proc = 4913 2592
Per MPI rank memory allocation (min/avg/max) = 5.425 | 5.447 | 5.490 Mbytes
Step Temp Atoms Density TotEng PotEng KinEng E_coul E_vdwl E_long Enthalpy Press 
   10400     0.998017     5202     0.752298 -15622.805824 -23408.831649  7786.025825   -54.089367 -23058.446562  -296.295720 -8511.179769     1.028463 
Loop time of 3.18611e-06 on 27 procs for 0 steps with 5202 atoms

group noneq_run_rigid    intersect   all         water               # select_salt no selection
0 atoms in group noneq_run_rigid
group noneq_run_pre      subtract    all         noneq_run_rigid     # select_salt no selection
5202 atoms in group noneq_run_pre
group noneq_run          subtract    noneq_run_pre   widom_test      # select_salt no selection
5200 atoms in group noneq_run
group noneq_run_pre      delete
run 0 post no # mom rev random number
WARNING: No fixes defined, atoms won't move (../verlet.cpp:55)
PPPM initialization ...
  using 12-bit tables for long-range coulomb (../kspace.cpp:340)
  G vector (1/distance) = 0.80673798
  grid = 36 36 36
  stencil order = 5
  estimated absolute RMS force accuracy = 8.2278886e-05
  estimated relative force accuracy = 8.2278886e-05
  using single precision KISS FFT
  3d grid and FFT values/proc = 4913 2592
Per MPI rank memory allocation (min/avg/max) = 5.425 | 5.447 | 5.490 Mbytes
Step Temp Atoms Density TotEng PotEng KinEng E_coul E_vdwl E_long Enthalpy Press 
   10400     0.998017     5202     0.752298 -15622.805824 -23408.831649  7786.025825   -54.089367 -23058.446562  -296.295720 -8511.179769     1.028463 
Loop time of 2.68233e-06 on 27 procs for 0 steps with 5202 atoms

######################################################################
pair_style   lj/cut/coul/long/neq 2.500000 3.500000 10400 100 1.000000 5 0 0 1.000000 1.000000 11 1.000000
kspace_style pppm 0.0001

# LJ (neq? True)
# real lj particles
pair_coeff  * *         1.  1.  2.5   # solvent + ions
pair_coeff  4*5 4*5     0   0   2.5   # wall atoms

        
pair_modify  tail no shift yes mix arithmetic # LB mixing rule
neigh_modify delay 2 every 1 check yes page 500000 one 50000
######################################################################
timestep 0.010000
fix  eqmd  noneq_run           nve                 # nve for non-rigid
run 100 # (neq? True) MD run
PPPM initialization ...
  using 12-bit tables for long-range coulomb (../kspace.cpp:340)
  G vector (1/distance) = 0.80673798
  grid = 36 36 36
  stencil order = 5
  estimated absolute RMS force accuracy = 8.2278886e-05
  estimated relative force accuracy = 8.2278886e-05
  using single precision KISS FFT
  3d grid and FFT values/proc = 4913 2592
Neighbor list info ...
  update every 1 steps, delay 2 steps, check yes
  max neighbors/atom: 50000, page size: 500000
  master list distance cutoff = 3.8
  ghost atom cutoff = 3.8
  binsize = 1.9, bins = 11 11 11
  1 neighbor lists, perpetual/occasional/extra = 1 0 0
  (1) pair lj/cut/coul/long/neq, perpetual
      attributes: half, newton on
      pair build: half/bin/atomonly/newton
      stencil: half/bin/3d
      bin: standard
Per MPI rank memory allocation (min/avg/max) = 5.425 | 5.447 | 5.490 Mbytes
Step Temp Atoms Density TotEng PotEng KinEng E_coul E_vdwl E_long Enthalpy Press 
   10400     0.998017     5202     0.752298 -15622.805824 -23408.831649  7786.025825   -54.089367 -23058.446562  -296.295720 -8511.179769     1.028463 
   10500     0.992986     5202     0.752298 -15614.663866 -23361.445617  7746.781751   -55.082609 -23009.530195  -296.832812 -8291.382070     1.059072 
Loop time of 0.305548 on 27 procs for 100 steps with 5202 atoms

Performance: 282770.275 tau/day, 327.280 timesteps/s
93.3% CPU use with 27 MPI tasks x no OpenMP threads

MPI task timing breakdown:
Section |  min time  |  avg time  |  max time  |%varavg| %total
---------------------------------------------------------------
Pair    | 0.060822   | 0.094724   | 0.10751    |   5.2 | 31.00
Kspace  | 0.15586    | 0.17007    | 0.20662    |   4.1 | 55.66
Neigh   | 0.015955   | 0.023174   | 0.026554   |   2.2 |  7.58
Comm    | 0.014113   | 0.015552   | 0.019954   |   1.6 |  5.09
Output  | 5.4135e-05 | 6.0648e-05 | 8.3206e-05 |   0.0 |  0.02
Modify  | 0.00036323 | 0.00055835 | 0.00068739 |   0.0 |  0.18
Other   |            | 0.001406   |            |       |  0.46

Nlocal:        192.667 ave         201 max         180 min
Histogram: 1 0 3 4 2 2 3 5 2 5
Nghost:        1850.93 ave        1868 max        1830 min
Histogram: 1 1 4 1 5 3 4 2 4 2
Neighs:        16537.7 ave       17817 max       15025 min
Histogram: 1 0 3 3 5 6 3 3 1 2

Total # of neighbors = 446517
Ave neighs/atom = 85.835640
Neighbor list builds = 27
Dangerous builds = 0
unfix    eqmd

group   solvent type 1
5000 atoms in group solvent
group   water   empty
0 atoms in group water
group   ions    type 2 3
202 atoms in group ions
group   wall    type 4 5
0 atoms in group wall
group   flying  type 6 7 8
2 atoms in group flying
group   eq_run  union solvent ions flying
5202 atoms in group eq_run
            
######################################################################
pair_style   lj/cut/coul/long 2.500000 3.500000
kspace_style pppm 0.0001

# LJ (neq? False)
# real lj particles
pair_coeff  * *         1.  1.  2.5   # solvent + ions
pair_coeff  4*5 4*5     0   0   2.5   # wall atoms

        
pair_modify  tail no shift yes mix arithmetic # LB mixing rule
neigh_modify delay 2 every 1 check yes page 500000 one 50000
######################################################################
# dealing with ideal flying particles: force field=simple_lj

# Non-interacting flying lj molecule (trial deletion)
# real lj particles
pair_coeff  * *         1.  1.  2.5   # solvent + ions
pair_coeff  4*5 4*5     0   0   2.5   # wall atoms
# flying particles
pair_coeff  * 6         0   0   2.5   # flying solvent  non-interacting
pair_coeff  * 7         0   0   2.5   # flying cation   non-interacting
pair_coeff  * 8         0   0   2.5   # flying anion    non-interacting

# flying solvetn or ions
set type 6  charge 0.                       # non-interacting
Setting atom values ...
  0 settings made for charge
set type 7  charge 0.                       # non-interacting
Setting atom values ...
  1 settings made for charge
set type 8  charge 0.                       # non-interacting
Setting atom values ...
  1 settings made for charge
        
run 0 post no # making flying moelcule non-interacting
WARNING: No fixes defined, atoms won't move (../verlet.cpp:55)
PPPM initialization ...
  using 12-bit tables for long-range coulomb (../kspace.cpp:340)
  G vector (1/distance) = 0.80656374
  grid = 36 36 36
  stencil order = 5
  estimated absolute RMS force accuracy = 8.1571722e-05
  estimated relative force accuracy = 8.1571722e-05
  using single precision KISS FFT
  3d grid and FFT values/proc = 4913 2592
Neighbor list info ...
  update every 1 steps, delay 2 steps, check yes
  max neighbors/atom: 50000, page size: 500000
  master list distance cutoff = 3.8
  ghost atom cutoff = 3.8
  binsize = 1.9, bins = 11 11 11
  1 neighbor lists, perpetual/occasional/extra = 1 0 0
  (1) pair lj/cut/coul/long, perpetual
      attributes: half, newton on
      pair build: half/bin/atomonly/newton
      stencil: half/bin/3d
      bin: standard
Per MPI rank memory allocation (min/avg/max) = 5.425 | 5.447 | 5.490 Mbytes
Step Temp Atoms Density TotEng PotEng KinEng E_coul E_vdwl E_long Enthalpy Press 
   10500     0.992986     5202     0.752298 -15600.043392 -23346.825142  7746.781751   -54.879500 -23000.598578  -291.347065 -8271.259557     1.059868 
Loop time of 2.66144e-06 on 27 procs for 0 steps with 5202 atoms

# done post_propagate after NEMD
# selected salt 5090/5123
#The center of bimodal dist. on a positive side=0.800000
set type 7 type 2
Setting atom values ...
  1 settings made for type
set type 8 type 3
Setting atom values ...
  1 settings made for type
run 0 post no # lj type change (reject_delete)
WARNING: No fixes defined, atoms won't move (../verlet.cpp:55)
PPPM initialization ...
  using 12-bit tables for long-range coulomb (../kspace.cpp:340)
  G vector (1/distance) = 0.80656374
  grid = 36 36 36
  stencil order = 5
  estimated absolute RMS force accuracy = 8.1571722e-05
  estimated relative force accuracy = 8.1571722e-05
  using single precision KISS FFT
  3d grid and FFT values/proc = 4913 2592
Per MPI rank memory allocation (min/avg/max) = 5.425 | 5.447 | 5.490 Mbytes
Step Temp Atoms Density TotEng PotEng KinEng E_coul E_vdwl E_long Enthalpy Press 
   10500     0.992986     5202     0.752298 -14950.117157 -22696.898908  7746.781751   -54.879500 -22350.672343  -291.347065 -4753.400471     1.474620 
Loop time of 2.66041e-06 on 27 procs for 0 steps with 5202 atoms

set atom 5090 charge 1.000000
Setting atom values ...
  1 settings made for charge
set atom 5123 charge -1.000000
Setting atom values ...
  1 settings made for charge
run 0 post no # charge return (reject_delete)
WARNING: No fixes defined, atoms won't move (../verlet.cpp:55)
PPPM initialization ...
  using 12-bit tables for long-range coulomb (../kspace.cpp:340)
  G vector (1/distance) = 0.80673798
  grid = 36 36 36
  stencil order = 5
  estimated absolute RMS force accuracy = 8.2278886e-05
  estimated relative force accuracy = 8.2278886e-05
  using single precision KISS FFT
  3d grid and FFT values/proc = 4913 2592
Per MPI rank memory allocation (min/avg/max) = 5.425 | 5.447 | 5.490 Mbytes
Step Temp Atoms Density TotEng PotEng KinEng E_coul E_vdwl E_long Enthalpy Press 
   10500     0.992986     5202     0.752298 -14957.291030 -22704.072781  7746.781751   -56.567626 -22350.672343  -296.832812 -4762.964515     1.474274 
Loop time of 2.70826e-06 on 27 procs for 0 steps with 5202 atoms

run 0 post no # return_position back to old
WARNING: No fixes defined, atoms won't move (../verlet.cpp:55)
PPPM initialization ...
  using 12-bit tables for long-range coulomb (../kspace.cpp:340)
  G vector (1/distance) = 0.80673798
  grid = 36 36 36
  stencil order = 5
  estimated absolute RMS force accuracy = 8.2278886e-05
  estimated relative force accuracy = 8.2278886e-05
  using single precision KISS FFT
  3d grid and FFT values/proc = 4913 2592
Per MPI rank memory allocation (min/avg/max) = 5.425 | 5.447 | 5.490 Mbytes
Step Temp Atoms Density TotEng PotEng KinEng E_coul E_vdwl E_long Enthalpy Press 
   10500     0.998017     5202     0.752298 -15622.805823 -23408.831648  7786.025825   -54.089367 -23058.446562  -296.295720 -8511.179769     1.028463 
Loop time of 2.68089e-06 on 27 procs for 0 steps with 5202 atoms

group widom_test         delete
group noneq_run          delete
group noneq_run_rigid    delete
reset_timestep 10400

group   solvent delete
group   water   delete
group   ions    delete
group   wall    delete
group   flying  delete
group   eq_run  delete
        

group   solvent type 1
5000 atoms in group solvent
group   water   empty
0 atoms in group water
group   ions    type 2 3
202 atoms in group ions
group   wall    type 4 5
0 atoms in group wall
group   flying  type 6 7 8
0 atoms in group flying
group   eq_run  union solvent ions flying
5202 atoms in group eq_run
            
######################################################################
pair_style   lj/cut/coul/long 2.500000 3.500000
kspace_style pppm 0.0001

# LJ (neq? False)
# real lj particles
pair_coeff  * *         1.  1.  2.5   # solvent + ions
pair_coeff  4*5 4*5     0   0   2.5   # wall atoms

        
pair_modify  tail no shift yes mix arithmetic # LB mixing rule
neigh_modify delay 2 every 1 check yes page 500000 one 50000
######################################################################
# shake is off; should be a dummy run
timestep 0.005000
thermo 2000
fix  eqmd   eq_run nvt temp 1.000000 1.000000 0.500000
run 0 # (neq? False) MD run
PPPM initialization ...
  using 12-bit tables for long-range coulomb (../kspace.cpp:340)
  G vector (1/distance) = 0.80673798
  grid = 36 36 36
  stencil order = 5
  estimated absolute RMS force accuracy = 8.2278886e-05
  estimated relative force accuracy = 8.2278886e-05
  using single precision KISS FFT
  3d grid and FFT values/proc = 4913 2592
Per MPI rank memory allocation (min/avg/max) = 5.425 | 5.447 | 5.490 Mbytes
Step Temp Atoms Density TotEng PotEng KinEng E_coul E_vdwl E_long Enthalpy Press 
   10400     0.998017     5202     0.752298 -15622.805823 -23408.831648  7786.025825   -54.089367 -23058.446562  -296.295720 -8511.179769     1.028463 
Loop time of 3.11944e-06 on 27 procs for 0 steps with 5202 atoms

115.2% CPU use with 27 MPI tasks x no OpenMP threads

MPI task timing breakdown:
Section |  min time  |  avg time  |  max time  |%varavg| %total
---------------------------------------------------------------
Pair    | 0          | 0          | 0          |   0.0 |  0.00
Kspace  | 0          | 0          | 0          |   0.0 |  0.00
Neigh   | 0          | 0          | 0          |   0.0 |  0.00
Comm    | 0          | 0          | 0          |   0.0 |  0.00
Output  | 0          | 0          | 0          |   0.0 |  0.00
Modify  | 0          | 0          | 0          |   0.0 |  0.00
Other   |            | 3.119e-06  |            |       |100.00

Nlocal:        192.667 ave         198 max         179 min
Histogram: 1 0 0 2 1 2 5 4 7 5
Nghost:        1850.70 ave        1873 max        1837 min
Histogram: 3 4 4 5 3 2 3 1 1 1
Neighs:        16522.8 ave       17287 max       15044 min
Histogram: 1 1 0 1 2 6 3 4 4 5

Total # of neighbors = 446116
Ave neighs/atom = 85.758554
Neighbor list builds = 0
Dangerous builds = 0
unfix    eqmd
#chosen_cation deletion_move -7.616665 -8.172641 -4.975043 # select_molecule
#chosen_anion deletion_move -7.623357 9.392242 -4.479078 # select_molecule
# selected_velocity_salt 5081 cation vel 0.182681 0.365777 -1.115405
# selected_velocity_salt 5139 anion vel -0.302940 -0.350980 -0.127556
group widom_test id  5081 5139 # select_molecule
2 atoms in group widom_test
set atom 5081 type 7
Setting atom values ...
  1 settings made for type
set atom 5139 type 8
Setting atom values ...
  1 settings made for type
run 0 post no # done selecting a flying molecule
WARNING: No fixes defined, atoms won't move (../verlet.cpp:55)
PPPM initialization ...
  using 12-bit tables for long-range coulomb (../kspace.cpp:340)
  G vector (1/distance) = 0.80673798
  grid = 36 36 36
  stencil order = 5
  estimated absolute RMS force accuracy = 8.2278886e-05
  estimated relative force accuracy = 8.2278886e-05
  using single precision KISS FFT
  3d grid and FFT values/proc = 4913 2592
Per MPI rank memory allocation (min/avg/max) = 5.425 | 5.447 | 5.490 Mbytes
Step Temp Atoms Density TotEng PotEng KinEng E_coul E_vdwl E_long Enthalpy Press 
   10400     0.998017     5202     0.752298 -15622.805823 -23408.831648  7786.025825   -54.089367 -23058.446562  -296.295720 -8511.179769     1.028463 
Loop time of 2.93963e-06 on 27 procs for 0 steps with 5202 atoms

group noneq_run_rigid    intersect   all         water               # select_salt no selection
0 atoms in group noneq_run_rigid
group noneq_run_pre      subtract    all         noneq_run_rigid     # select_salt no selection
5202 atoms in group noneq_run_pre
group noneq_run          subtract    noneq_run_pre   widom_test      # select_salt no selection
5200 atoms in group noneq_run
group noneq_run_pre      delete
run 0 post no # mom rev random number
WARNING: No fixes defined, atoms won't move (../verlet.cpp:55)
PPPM initialization ...
  using 12-bit tables for long-range coulomb (../kspace.cpp:340)
  G vector (1/distance) = 0.80673798
  grid = 36 36 36
  stencil order = 5
  estimated absolute RMS force accuracy = 8.2278886e-05
  estimated relative force accuracy = 8.2278886e-05
  using single precision KISS FFT
  3d grid and FFT values/proc = 4913 2592
Per MPI rank memory allocation (min/avg/max) = 5.425 | 5.447 | 5.490 Mbytes
Step Temp Atoms Density TotEng PotEng KinEng E_coul E_vdwl E_long Enthalpy Press 
   10400     0.998017     5202     0.752298 -15622.805823 -23408.831648  7786.025825   -54.089367 -23058.446562  -296.295720 -8511.179769     1.028463 
Loop time of 2.72381e-06 on 27 procs for 0 steps with 5202 atoms

######################################################################
pair_style   lj/cut/coul/long/neq 2.500000 3.500000 10400 100 1.000000 5 0 0 1.000000 1.000000 11 1.000000
kspace_style pppm 0.0001

# LJ (neq? True)
# real lj particles
pair_coeff  * *         1.  1.  2.5   # solvent + ions
pair_coeff  4*5 4*5     0   0   2.5   # wall atoms

        
pair_modify  tail no shift yes mix arithmetic # LB mixing rule
neigh_modify delay 2 every 1 check yes page 500000 one 50000
######################################################################
timestep 0.010000
fix  eqmd  noneq_run           nve                 # nve for non-rigid
run 100 # (neq? True) MD run
PPPM initialization ...
  using 12-bit tables for long-range coulomb (../kspace.cpp:340)
  G vector (1/distance) = 0.80673798
  grid = 36 36 36
  stencil order = 5
  estimated absolute RMS force accuracy = 8.2278886e-05
  estimated relative force accuracy = 8.2278886e-05
  using single precision KISS FFT
  3d grid and FFT values/proc = 4913 2592
Neighbor list info ...
  update every 1 steps, delay 2 steps, check yes
  max neighbors/atom: 50000, page size: 500000
  master list distance cutoff = 3.8
  ghost atom cutoff = 3.8
  binsize = 1.9, bins = 11 11 11
  1 neighbor lists, perpetual/occasional/extra = 1 0 0
  (1) pair lj/cut/coul/long/neq, perpetual
      attributes: half, newton on
      pair build: half/bin/atomonly/newton
      stencil: half/bin/3d
      bin: standard
Per MPI rank memory allocation (min/avg/max) = 5.425 | 5.447 | 5.490 Mbytes
Step Temp Atoms Density TotEng PotEng KinEng E_coul E_vdwl E_long Enthalpy Press 
   10400     0.998017     5202     0.752298 -15622.805823 -23408.831648  7786.025825   -54.089367 -23058.446562  -296.295720 -8511.179769     1.028463 
   10500     0.985449     5202     0.752298 -15614.584084 -23302.566504  7687.982420   -55.814999 -22951.559188  -295.192317 -7987.608311     1.102991 
Loop time of 0.305942 on 27 procs for 100 steps with 5202 atoms

Performance: 282406.452 tau/day, 326.859 timesteps/s
92.7% CPU use with 27 MPI tasks x no OpenMP threads

MPI task timing breakdown:
Section |  min time  |  avg time  |  max time  |%varavg| %total
---------------------------------------------------------------
Pair    | 0.060777   | 0.095075   | 0.10896    |   5.3 | 31.08
Kspace  | 0.15215    | 0.17011    | 0.2074     |   4.2 | 55.60
Neigh   | 0.015827   | 0.023092   | 0.028042   |   2.2 |  7.55
Comm    | 0.01412    | 0.015627   | 0.019901   |   1.5 |  5.11
Output  | 5.4883e-05 | 6.2251e-05 | 8.3932e-05 |   0.0 |  0.02
Modify  | 0.00035719 | 0.00056088 | 0.00073497 |   0.0 |  0.18
Other   |            | 0.001419   |            |       |  0.46

Nlocal:        192.667 ave         202 max         183 min
Histogram: 1 3 4 1 5 3 2 2 5 1
Nghost:        1852.74 ave        1873 max        1834 min
Histogram: 2 1 4 4 5 2 2 4 2 1
Neighs:        16534.1 ave       18038 max       15232 min
Histogram: 2 1 4 4 3 5 5 1 1 1

Total # of neighbors = 446421
Ave neighs/atom = 85.817186
Neighbor list builds = 27
Dangerous builds = 0
unfix    eqmd

group   solvent type 1
5000 atoms in group solvent
group   water   empty
0 atoms in group water
group   ions    type 2 3
202 atoms in group ions
group   wall    type 4 5
0 atoms in group wall
group   flying  type 6 7 8
2 atoms in group flying
group   eq_run  union solvent ions flying
5202 atoms in group eq_run
            
######################################################################
pair_style   lj/cut/coul/long 2.500000 3.500000
kspace_style pppm 0.0001

# LJ (neq? False)
# real lj particles
pair_coeff  * *         1.  1.  2.5   # solvent + ions
pair_coeff  4*5 4*5     0   0   2.5   # wall atoms

        
pair_modify  tail no shift yes mix arithmetic # LB mixing rule
neigh_modify delay 2 every 1 check yes page 500000 one 50000
######################################################################
# dealing with ideal flying particles: force field=simple_lj

# Non-interacting flying lj molecule (trial deletion)
# real lj particles
pair_coeff  * *         1.  1.  2.5   # solvent + ions
pair_coeff  4*5 4*5     0   0   2.5   # wall atoms
# flying particles
pair_coeff  * 6         0   0   2.5   # flying solvent  non-interacting
pair_coeff  * 7         0   0   2.5   # flying cation   non-interacting
pair_coeff  * 8         0   0   2.5   # flying anion    non-interacting

# flying solvetn or ions
set type 6  charge 0.                       # non-interacting
Setting atom values ...
  0 settings made for charge
set type 7  charge 0.                       # non-interacting
Setting atom values ...
  1 settings made for charge
set type 8  charge 0.                       # non-interacting
Setting atom values ...
  1 settings made for charge
        
run 0 post no # making flying moelcule non-interacting
WARNING: No fixes defined, atoms won't move (../verlet.cpp:55)
PPPM initialization ...
  using 12-bit tables for long-range coulomb (../kspace.cpp:340)
  G vector (1/distance) = 0.80656374
  grid = 36 36 36
  stencil order = 5
  estimated absolute RMS force accuracy = 8.1571722e-05
  estimated relative force accuracy = 8.1571722e-05
  using single precision KISS FFT
  3d grid and FFT values/proc = 4913 2592
Neighbor list info ...
  update every 1 steps, delay 2 steps, check yes
  max neighbors/atom: 50000, page size: 500000
  master list distance cutoff = 3.8
  ghost atom cutoff = 3.8
  binsize = 1.9, bins = 11 11 11
  1 neighbor lists, perpetual/occasional/extra = 1 0 0
  (1) pair lj/cut/coul/long, perpetual
      attributes: half, newton on
      pair build: half/bin/atomonly/newton
      stencil: half/bin/3d
      bin: standard
Per MPI rank memory allocation (min/avg/max) = 5.425 | 5.447 | 5.490 Mbytes
Step Temp Atoms Density TotEng PotEng KinEng E_coul E_vdwl E_long Enthalpy Press 
   10500     0.985449     5202     0.752298 -15603.511364 -23291.493784  7687.982420   -55.810960 -22942.999722  -292.683102 -7966.176771     1.104490 
Loop time of 2.82867e-06 on 27 procs for 0 steps with 5202 atoms

# done post_propagate after NEMD
# selected salt 5081/5139
#The center of bimodal dist. on a positive side=0.800000
set type 7 type 2
Setting atom values ...
  1 settings made for type
set type 8 type 3
Setting atom values ...
  1 settings made for type
run 0 post no # lj type change (reject_delete)
WARNING: No fixes defined, atoms won't move (../verlet.cpp:55)
PPPM initialization ...
  using 12-bit tables for long-range coulomb (../kspace.cpp:340)
  G vector (1/distance) = 0.80656374
  grid = 36 36 36
  stencil order = 5
  estimated absolute RMS force accuracy = 8.1571722e-05
  estimated relative force accuracy = 8.1571722e-05
  using single precision KISS FFT
  3d grid and FFT values/proc = 4913 2592
Per MPI rank memory allocation (min/avg/max) = 5.425 | 5.447 | 5.490 Mbytes
Step Temp Atoms Density TotEng PotEng KinEng E_coul E_vdwl E_long Enthalpy Press 
   10500     0.985449     5202     0.752298 -8743.548396 -16431.530817  7687.982420   -55.810960 -16083.036754  -292.683102 26861.870345     5.149154 
Loop time of 2.89122e-06 on 27 procs for 0 steps with 5202 atoms

set atom 5081 charge 1.000000
Setting atom values ...
  1 settings made for charge
set atom 5139 charge -1.000000
Setting atom values ...
  1 settings made for charge
run 0 post no # charge return (reject_delete)
WARNING: No fixes defined, atoms won't move (../verlet.cpp:55)
PPPM initialization ...
  using 12-bit tables for long-range coulomb (../kspace.cpp:340)
  G vector (1/distance) = 0.80673798
  grid = 36 36 36
  stencil order = 5
  estimated absolute RMS force accuracy = 8.2278886e-05
  estimated relative force accuracy = 8.2278886e-05
  using single precision KISS FFT
  3d grid and FFT values/proc = 4913 2592
Per MPI rank memory allocation (min/avg/max) = 5.425 | 5.447 | 5.490 Mbytes
Step Temp Atoms Density TotEng PotEng KinEng E_coul E_vdwl E_long Enthalpy Press 
   10500     0.985449     5202     0.752298 -8746.261561 -16434.243981  7687.982420   -56.014910 -16083.036754  -295.192317 26858.254578     5.149024 
Loop time of 2.47559e-06 on 27 procs for 0 steps with 5202 atoms

run 0 post no # return_position back to old
WARNING: No fixes defined, atoms won't move (../verlet.cpp:55)
PPPM initialization ...
  using 12-bit tables for long-range coulomb (../kspace.cpp:340)
  G vector (1/distance) = 0.80673798
  grid = 36 36 36
  stencil order = 5
  estimated absolute RMS force accuracy = 8.2278886e-05
  estimated relative force accuracy = 8.2278886e-05
  using single precision KISS FFT
  3d grid and FFT values/proc = 4913 2592
Per MPI rank memory allocation (min/avg/max) = 5.425 | 5.447 | 5.490 Mbytes
Step Temp Atoms Density TotEng PotEng KinEng E_coul E_vdwl E_long Enthalpy Press 
   10500     0.998017     5202     0.752298 -15622.805824 -23408.831649  7786.025825   -54.089367 -23058.446562  -296.295720 -8511.179769     1.028463 
Loop time of 2.73852e-06 on 27 procs for 0 steps with 5202 atoms

group widom_test         delete
group noneq_run          delete
group noneq_run_rigid    delete
reset_timestep 10400

group   solvent delete
group   water   delete
group   ions    delete
group   wall    delete
group   flying  delete
group   eq_run  delete
        

group   solvent type 1
5000 atoms in group solvent
group   water   empty
0 atoms in group water
group   ions    type 2 3
202 atoms in group ions
group   wall    type 4 5
0 atoms in group wall
group   flying  type 6 7 8
0 atoms in group flying
group   eq_run  union solvent ions flying
5202 atoms in group eq_run
            
######################################################################
pair_style   lj/cut/coul/long 2.500000 3.500000
kspace_style pppm 0.0001

# LJ (neq? False)
# real lj particles
pair_coeff  * *         1.  1.  2.5   # solvent + ions
pair_coeff  4*5 4*5     0   0   2.5   # wall atoms

        
pair_modify  tail no shift yes mix arithmetic # LB mixing rule
neigh_modify delay 2 every 1 check yes page 500000 one 50000
######################################################################
# shake is off; should be a dummy run
timestep 0.005000
thermo 2000
fix  eqmd   eq_run nvt temp 1.000000 1.000000 0.500000
run 0 # (neq? False) MD run
PPPM initialization ...
  using 12-bit tables for long-range coulomb (../kspace.cpp:340)
  G vector (1/distance) = 0.80673798
  grid = 36 36 36
  stencil order = 5
  estimated absolute RMS force accuracy = 8.2278886e-05
  estimated relative force accuracy = 8.2278886e-05
  using single precision KISS FFT
  3d grid and FFT values/proc = 4913 2592
Per MPI rank memory allocation (min/avg/max) = 5.425 | 5.447 | 5.490 Mbytes
Step Temp Atoms Density TotEng PotEng KinEng E_coul E_vdwl E_long Enthalpy Press 
   10400     0.998017     5202     0.752298 -15622.805824 -23408.831649  7786.025825   -54.089367 -23058.446562  -296.295720 -8511.179769     1.028463 
Loop time of 4.2987e-06 on 27 procs for 0 steps with 5202 atoms

131.0% CPU use with 27 MPI tasks x no OpenMP threads

MPI task timing breakdown:
Section |  min time  |  avg time  |  max time  |%varavg| %total
---------------------------------------------------------------
Pair    | 0          | 0          | 0          |   0.0 |  0.00
Kspace  | 0          | 0          | 0          |   0.0 |  0.00
Neigh   | 0          | 0          | 0          |   0.0 |  0.00
Comm    | 0          | 0          | 0          |   0.0 |  0.00
Output  | 0          | 0          | 0          |   0.0 |  0.00
Modify  | 0          | 0          | 0          |   0.0 |  0.00
Other   |            | 4.299e-06  |            |       |100.00

Nlocal:        192.667 ave         198 max         179 min
Histogram: 1 0 0 2 1 2 5 4 7 5
Nghost:        1850.70 ave        1873 max        1837 min
Histogram: 3 4 4 5 3 2 3 1 1 1
Neighs:        16522.8 ave       17287 max       15044 min
Histogram: 1 1 0 1 2 6 3 4 4 5

Total # of neighbors = 446116
Ave neighs/atom = 85.758554
Neighbor list builds = 0
Dangerous builds = 0
unfix    eqmd
#chosen_cation deletion_move -3.536520 -7.983303 4.134985 # select_molecule
#chosen_anion deletion_move -4.347595 -6.896898 5.715287 # select_molecule
# selected_velocity_salt 5077 cation vel 0.280070 1.251183 1.712481
# selected_velocity_salt 5200 anion vel 1.709636 0.782653 -0.659888
group widom_test id  5077 5200 # select_molecule
2 atoms in group widom_test
set atom 5077 type 7
Setting atom values ...
  1 settings made for type
set atom 5200 type 8
Setting atom values ...
  1 settings made for type
run 0 post no # done selecting a flying molecule
WARNING: No fixes defined, atoms won't move (../verlet.cpp:55)
PPPM initialization ...
  using 12-bit tables for long-range coulomb (../kspace.cpp:340)
  G vector (1/distance) = 0.80673798
  grid = 36 36 36
  stencil order = 5
  estimated absolute RMS force accuracy = 8.2278886e-05
  estimated relative force accuracy = 8.2278886e-05
  using single precision KISS FFT
  3d grid and FFT values/proc = 4913 2592
Per MPI rank memory allocation (min/avg/max) = 5.425 | 5.447 | 5.490 Mbytes
Step Temp Atoms Density TotEng PotEng KinEng E_coul E_vdwl E_long Enthalpy Press 
   10400     0.998017     5202     0.752298 -15622.805824 -23408.831649  7786.025825   -54.089367 -23058.446562  -296.295720 -8511.179769     1.028463 
Loop time of 2.75637e-06 on 27 procs for 0 steps with 5202 atoms

group noneq_run_rigid    intersect   all         water               # select_salt no selection
0 atoms in group noneq_run_rigid
group noneq_run_pre      subtract    all         noneq_run_rigid     # select_salt no selection
5202 atoms in group noneq_run_pre
group noneq_run          subtract    noneq_run_pre   widom_test      # select_salt no selection
5200 atoms in group noneq_run
group noneq_run_pre      delete
run 0 post no # mom rev random number
WARNING: No fixes defined, atoms won't move (../verlet.cpp:55)
PPPM initialization ...
  using 12-bit tables for long-range coulomb (../kspace.cpp:340)
  G vector (1/distance) = 0.80673798
  grid = 36 36 36
  stencil order = 5
  estimated absolute RMS force accuracy = 8.2278886e-05
  estimated relative force accuracy = 8.2278886e-05
  using single precision KISS FFT
  3d grid and FFT values/proc = 4913 2592
Per MPI rank memory allocation (min/avg/max) = 5.425 | 5.447 | 5.490 Mbytes
Step Temp Atoms Density TotEng PotEng KinEng E_coul E_vdwl E_long Enthalpy Press 
   10400     0.998017     5202     0.752298 -15622.805824 -23408.831649  7786.025825   -54.089367 -23058.446562  -296.295720 -8511.179769     1.028463 
Loop time of 2.47311e-06 on 27 procs for 0 steps with 5202 atoms

######################################################################
pair_style   lj/cut/coul/long/neq 2.500000 3.500000 10400 100 1.000000 5 0 0 1.000000 1.000000 11 1.000000
kspace_style pppm 0.0001

# LJ (neq? True)
# real lj particles
pair_coeff  * *         1.  1.  2.5   # solvent + ions
pair_coeff  4*5 4*5     0   0   2.5   # wall atoms

        
pair_modify  tail no shift yes mix arithmetic # LB mixing rule
neigh_modify delay 2 every 1 check yes page 500000 one 50000
######################################################################
timestep 0.010000
fix  eqmd  noneq_run           nve                 # nve for non-rigid
run 100 # (neq? True) MD run
PPPM initialization ...
  using 12-bit tables for long-range coulomb (../kspace.cpp:340)
  G vector (1/distance) = 0.80673798
  grid = 36 36 36
  stencil order = 5
  estimated absolute RMS force accuracy = 8.2278886e-05
  estimated relative force accuracy = 8.2278886e-05
  using single precision KISS FFT
  3d grid and FFT values/proc = 4913 2592
Neighbor list info ...
  update every 1 steps, delay 2 steps, check yes
  max neighbors/atom: 50000, page size: 500000
  master list distance cutoff = 3.8
  ghost atom cutoff = 3.8
  binsize = 1.9, bins = 11 11 11
  1 neighbor lists, perpetual/occasional/extra = 1 0 0
  (1) pair lj/cut/coul/long/neq, perpetual
      attributes: half, newton on
      pair build: half/bin/atomonly/newton
      stencil: half/bin/3d
      bin: standard
Per MPI rank memory allocation (min/avg/max) = 5.425 | 5.447 | 5.490 Mbytes
Step Temp Atoms Density TotEng PotEng KinEng E_coul E_vdwl E_long Enthalpy Press 
   10400     0.998017     5202     0.752298 -15622.805824 -23408.831649  7786.025825   -54.089367 -23058.446562  -296.295720 -8511.179769     1.028463 
   10500     0.992539     5202     0.752298 -15618.939249 -23362.234240  7743.294992   -54.385463 -23012.566461  -295.282317 -8378.504149     1.047091 
Loop time of 0.306743 on 27 procs for 100 steps with 5202 atoms

Performance: 281669.267 tau/day, 326.006 timesteps/s
92.9% CPU use with 27 MPI tasks x no OpenMP threads

MPI task timing breakdown:
Section |  min time  |  avg time  |  max time  |%varavg| %total
---------------------------------------------------------------
Pair    | 0.061363   | 0.095507   | 0.10842    |   5.2 | 31.14
Kspace  | 0.15558    | 0.17085    | 0.20721    |   4.1 | 55.70
Neigh   | 0.016037   | 0.022859   | 0.026311   |   2.1 |  7.45
Comm    | 0.014001   | 0.015504   | 0.019758   |   1.6 |  5.05
Output  | 5.3865e-05 | 6.0929e-05 | 8.2233e-05 |   0.0 |  0.02
Modify  | 0.00036608 | 0.0005661  | 0.00075254 |   0.0 |  0.18
Other   |            | 0.001392   |            |       |  0.45

Nlocal:        192.667 ave         202 max         180 min
Histogram: 1 0 4 3 2 4 4 2 4 3
Nghost:        1851.00 ave        1869 max        1831 min
Histogram: 2 1 2 6 1 5 2 3 1 4
Neighs:        16532.7 ave       18036 max       15073 min
Histogram: 1 1 3 5 1 8 5 1 1 1

Total # of neighbors = 446383
Ave neighs/atom = 85.809881
Neighbor list builds = 27
Dangerous builds = 0
unfix    eqmd

group   solvent type 1
5000 atoms in group solvent
group   water   empty
0 atoms in group water
group   ions    type 2 3
202 atoms in group ions
group   wall    type 4 5
0 atoms in group wall
group   flying  type 6 7 8
2 atoms in group flying
group   eq_run  union solvent ions flying
5202 atoms in group eq_run
            
######################################################################
pair_style   lj/cut/coul/long 2.500000 3.500000
kspace_style pppm 0.0001

# LJ (neq? False)
# real lj particles
pair_coeff  * *         1.  1.  2.5   # solvent + ions
pair_coeff  4*5 4*5     0   0   2.5   # wall atoms

        
pair_modify  tail no shift yes mix arithmetic # LB mixing rule
neigh_modify delay 2 every 1 check yes page 500000 one 50000
######################################################################
# dealing with ideal flying particles: force field=simple_lj

# Non-interacting flying lj molecule (trial deletion)
# real lj particles
pair_coeff  * *         1.  1.  2.5   # solvent + ions
pair_coeff  4*5 4*5     0   0   2.5   # wall atoms
# flying particles
pair_coeff  * 6         0   0   2.5   # flying solvent  non-interacting
pair_coeff  * 7         0   0   2.5   # flying cation   non-interacting
pair_coeff  * 8         0   0   2.5   # flying anion    non-interacting

# flying solvetn or ions
set type 6  charge 0.                       # non-interacting
Setting atom values ...
  0 settings made for charge
set type 7  charge 0.                       # non-interacting
Setting atom values ...
  1 settings made for charge
set type 8  charge 0.                       # non-interacting
Setting atom values ...
  1 settings made for charge
        
run 0 post no # making flying moelcule non-interacting
WARNING: No fixes defined, atoms won't move (../verlet.cpp:55)
PPPM initialization ...
  using 12-bit tables for long-range coulomb (../kspace.cpp:340)
  G vector (1/distance) = 0.80656374
  grid = 36 36 36
  stencil order = 5
  estimated absolute RMS force accuracy = 8.1571722e-05
  estimated relative force accuracy = 8.1571722e-05
  using single precision KISS FFT
  3d grid and FFT values/proc = 4913 2592
Neighbor list info ...
  update every 1 steps, delay 2 steps, check yes
  max neighbors/atom: 50000, page size: 500000
  master list distance cutoff = 3.8
  ghost atom cutoff = 3.8
  binsize = 1.9, bins = 11 11 11
  1 neighbor lists, perpetual/occasional/extra = 1 0 0
  (1) pair lj/cut/coul/long, perpetual
      attributes: half, newton on
      pair build: half/bin/atomonly/newton
      stencil: half/bin/3d
      bin: standard
Per MPI rank memory allocation (min/avg/max) = 5.425 | 5.447 | 5.490 Mbytes
Step Temp Atoms Density TotEng PotEng KinEng E_coul E_vdwl E_long Enthalpy Press 
   10500     0.992539     5202     0.752298 -15605.763511 -23349.058503  7743.294992   -54.310961 -23004.224342  -290.523199 -8355.542549     1.048506 
Loop time of 4.60674e-06 on 27 procs for 0 steps with 5202 atoms

# done post_propagate after NEMD
# selected salt 5077/5200
#The center of bimodal dist. on a positive side=0.800000
set type 7 type 2
Setting atom values ...
  1 settings made for type
set type 8 type 3
Setting atom values ...
  1 settings made for type
run 0 post no # lj type change (reject_delete)
WARNING: No fixes defined, atoms won't move (../verlet.cpp:55)
PPPM initialization ...
  using 12-bit tables for long-range coulomb (../kspace.cpp:340)
  G vector (1/distance) = 0.80656374
  grid = 36 36 36
  stencil order = 5
  estimated absolute RMS force accuracy = 8.1571722e-05
  estimated relative force accuracy = 8.1571722e-05
  using single precision KISS FFT
  3d grid and FFT values/proc = 4913 2592
Per MPI rank memory allocation (min/avg/max) = 5.425 | 5.447 | 5.490 Mbytes
Step Temp Atoms Density TotEng PotEng KinEng E_coul E_vdwl E_long Enthalpy Press 
   10500     0.992539     5202     0.752298 67686.950116 59943.655124  7743.294992   -54.310961 60288.489284  -290.523199 409447.541566    49.424442 
Loop time of 2.98478e-06 on 27 procs for 0 steps with 5202 atoms

set atom 5077 charge 1.000000
Setting atom values ...
  1 settings made for charge
set atom 5200 charge -1.000000
Setting atom values ...
  1 settings made for charge
run 0 post no # charge return (reject_delete)
WARNING: No fixes defined, atoms won't move (../verlet.cpp:55)
PPPM initialization ...
  using 12-bit tables for long-range coulomb (../kspace.cpp:340)
  G vector (1/distance) = 0.80673798
  grid = 36 36 36
  stencil order = 5
  estimated absolute RMS force accuracy = 8.2278886e-05
  estimated relative force accuracy = 8.2278886e-05
  using single precision KISS FFT
  3d grid and FFT values/proc = 4913 2592
Per MPI rank memory allocation (min/avg/max) = 5.425 | 5.447 | 5.490 Mbytes
Step Temp Atoms Density TotEng PotEng KinEng E_coul E_vdwl E_long Enthalpy Press 
   10500     0.992539     5202     0.752298 67681.473547 59938.178555  7743.294992   -55.028413 60288.489284  -295.282316 409440.238598    49.424178 
Loop time of 2.76878e-06 on 27 procs for 0 steps with 5202 atoms

run 0 post no # return_position back to old
WARNING: No fixes defined, atoms won't move (../verlet.cpp:55)
PPPM initialization ...
  using 12-bit tables for long-range coulomb (../kspace.cpp:340)
  G vector (1/distance) = 0.80673798
  grid = 36 36 36
  stencil order = 5
  estimated absolute RMS force accuracy = 8.2278886e-05
  estimated relative force accuracy = 8.2278886e-05
  using single precision KISS FFT
  3d grid and FFT values/proc = 4913 2592
Per MPI rank memory allocation (min/avg/max) = 5.425 | 5.447 | 5.490 Mbytes
Step Temp Atoms Density TotEng PotEng KinEng E_coul E_vdwl E_long Enthalpy Press 
   10500     0.998017     5202     0.752298 -15622.805823 -23408.831648  7786.025825   -54.089367 -23058.446562  -296.295720 -8511.179769     1.028463 
Loop time of 2.80774e-06 on 27 procs for 0 steps with 5202 atoms

group widom_test         delete
group noneq_run          delete
group noneq_run_rigid    delete
reset_timestep 10400

group   solvent delete
group   water   delete
group   ions    delete
group   wall    delete
group   flying  delete
group   eq_run  delete
        

group   solvent type 1
5000 atoms in group solvent
group   water   empty
0 atoms in group water
group   ions    type 2 3
202 atoms in group ions
group   wall    type 4 5
0 atoms in group wall
group   flying  type 6 7 8
0 atoms in group flying
group   eq_run  union solvent ions flying
5202 atoms in group eq_run
            
######################################################################
pair_style   lj/cut/coul/long 2.500000 3.500000
kspace_style pppm 0.0001

# LJ (neq? False)
# real lj particles
pair_coeff  * *         1.  1.  2.5   # solvent + ions
pair_coeff  4*5 4*5     0   0   2.5   # wall atoms

        
pair_modify  tail no shift yes mix arithmetic # LB mixing rule
neigh_modify delay 2 every 1 check yes page 500000 one 50000
######################################################################
# shake is off; should be a dummy run
timestep 0.005000
thermo 2000
fix  eqmd   eq_run nvt temp 1.000000 1.000000 0.500000
run 0 # (neq? False) MD run
PPPM initialization ...
  using 12-bit tables for long-range coulomb (../kspace.cpp:340)
  G vector (1/distance) = 0.80673798
  grid = 36 36 36
  stencil order = 5
  estimated absolute RMS force accuracy = 8.2278886e-05
  estimated relative force accuracy = 8.2278886e-05
  using single precision KISS FFT
  3d grid and FFT values/proc = 4913 2592
Per MPI rank memory allocation (min/avg/max) = 5.425 | 5.447 | 5.490 Mbytes
Step Temp Atoms Density TotEng PotEng KinEng E_coul E_vdwl E_long Enthalpy Press 
   10400     0.998017     5202     0.752298 -15622.805823 -23408.831648  7786.025825   -54.089367 -23058.446562  -296.295720 -8511.179769     1.028463 
Loop time of 3.35607e-06 on 27 procs for 0 steps with 5202 atoms

124.7% CPU use with 27 MPI tasks x no OpenMP threads

MPI task timing breakdown:
Section |  min time  |  avg time  |  max time  |%varavg| %total
---------------------------------------------------------------
Pair    | 0          | 0          | 0          |   0.0 |  0.00
Kspace  | 0          | 0          | 0          |   0.0 |  0.00
Neigh   | 0          | 0          | 0          |   0.0 |  0.00
Comm    | 0          | 0          | 0          |   0.0 |  0.00
Output  | 0          | 0          | 0          |   0.0 |  0.00
Modify  | 0          | 0          | 0          |   0.0 |  0.00
Other   |            | 3.356e-06  |            |       |100.00

Nlocal:        192.667 ave         198 max         179 min
Histogram: 1 0 0 2 1 2 5 4 7 5
Nghost:        1850.70 ave        1873 max        1837 min
Histogram: 3 4 4 5 3 2 3 1 1 1
Neighs:        16522.8 ave       17287 max       15044 min
Histogram: 1 1 0 1 2 6 3 4 4 5

Total # of neighbors = 446116
Ave neighs/atom = 85.758554
Neighbor list builds = 0
Dangerous builds = 0
unfix    eqmd
#chosen_cation deletion_move -1.169350 0.741912 6.694769 # select_molecule
#chosen_anion deletion_move 0.231440 -0.953011 7.516591 # select_molecule
# selected_velocity_salt 5001 cation vel 0.878431 0.447331 -0.531529
# selected_velocity_salt 5166 anion vel -0.413357 0.803607 -1.403477
group widom_test id  5001 5166 # select_molecule
2 atoms in group widom_test
set atom 5001 type 7
Setting atom values ...
  1 settings made for type
set atom 5166 type 8
Setting atom values ...
  1 settings made for type
run 0 post no # done selecting a flying molecule
WARNING: No fixes defined, atoms won't move (../verlet.cpp:55)
PPPM initialization ...
  using 12-bit tables for long-range coulomb (../kspace.cpp:340)
  G vector (1/distance) = 0.80673798
  grid = 36 36 36
  stencil order = 5
  estimated absolute RMS force accuracy = 8.2278886e-05
  estimated relative force accuracy = 8.2278886e-05
  using single precision KISS FFT
  3d grid and FFT values/proc = 4913 2592
Per MPI rank memory allocation (min/avg/max) = 5.425 | 5.447 | 5.490 Mbytes
Step Temp Atoms Density TotEng PotEng KinEng E_coul E_vdwl E_long Enthalpy Press 
   10400     0.998017     5202     0.752298 -15622.805823 -23408.831648  7786.025825   -54.089367 -23058.446562  -296.295720 -8511.179769     1.028463 
Loop time of 2.5967e-06 on 27 procs for 0 steps with 5202 atoms

group noneq_run_rigid    intersect   all         water               # select_salt no selection
0 atoms in group noneq_run_rigid
group noneq_run_pre      subtract    all         noneq_run_rigid     # select_salt no selection
5202 atoms in group noneq_run_pre
group noneq_run          subtract    noneq_run_pre   widom_test      # select_salt no selection
5200 atoms in group noneq_run
group noneq_run_pre      delete
run 0 post no # mom rev random number
WARNING: No fixes defined, atoms won't move (../verlet.cpp:55)
PPPM initialization ...
  using 12-bit tables for long-range coulomb (../kspace.cpp:340)
  G vector (1/distance) = 0.80673798
  grid = 36 36 36
  stencil order = 5
  estimated absolute RMS force accuracy = 8.2278886e-05
  estimated relative force accuracy = 8.2278886e-05
  using single precision KISS FFT
  3d grid and FFT values/proc = 4913 2592
Per MPI rank memory allocation (min/avg/max) = 5.425 | 5.447 | 5.490 Mbytes
Step Temp Atoms Density TotEng PotEng KinEng E_coul E_vdwl E_long Enthalpy Press 
   10400     0.998017     5202     0.752298 -15622.805823 -23408.831648  7786.025825   -54.089367 -23058.446562  -296.295720 -8511.179769     1.028463 
Loop time of 2.64463e-06 on 27 procs for 0 steps with 5202 atoms

######################################################################
pair_style   lj/cut/coul/long/neq 2.500000 3.500000 10400 100 1.000000 5 0 0 1.000000 1.000000 11 1.000000
kspace_style pppm 0.0001

# LJ (neq? True)
# real lj particles
pair_coeff  * *         1.  1.  2.5   # solvent + ions
pair_coeff  4*5 4*5     0   0   2.5   # wall atoms

        
pair_modify  tail no shift yes mix arithmetic # LB mixing rule
neigh_modify delay 2 every 1 check yes page 500000 one 50000
######################################################################
timestep 0.010000
fix  eqmd  noneq_run           nve                 # nve for non-rigid
run 100 # (neq? True) MD run
PPPM initialization ...
  using 12-bit tables for long-range coulomb (../kspace.cpp:340)
  G vector (1/distance) = 0.80673798
  grid = 36 36 36
  stencil order = 5
  estimated absolute RMS force accuracy = 8.2278886e-05
  estimated relative force accuracy = 8.2278886e-05
  using single precision KISS FFT
  3d grid and FFT values/proc = 4913 2592
Neighbor list info ...
  update every 1 steps, delay 2 steps, check yes
  max neighbors/atom: 50000, page size: 500000
  master list distance cutoff = 3.8
  ghost atom cutoff = 3.8
  binsize = 1.9, bins = 11 11 11
  1 neighbor lists, perpetual/occasional/extra = 1 0 0
  (1) pair lj/cut/coul/long/neq, perpetual
      attributes: half, newton on
      pair build: half/bin/atomonly/newton
      stencil: half/bin/3d
      bin: standard
Per MPI rank memory allocation (min/avg/max) = 5.425 | 5.447 | 5.490 Mbytes
Step Temp Atoms Density TotEng PotEng KinEng E_coul E_vdwl E_long Enthalpy Press 
   10400     0.998017     5202     0.752298 -15622.805823 -23408.831648  7786.025825   -54.089367 -23058.446562  -296.295720 -8511.179769     1.028463 
   10500     0.991759     5202     0.752298 -15620.136494 -23357.345989  7737.209495   -55.996440 -23005.236737  -296.112812 -8236.809169     1.067756 
Loop time of 0.305357 on 27 procs for 100 steps with 5202 atoms

Performance: 282947.204 tau/day, 327.485 timesteps/s
92.9% CPU use with 27 MPI tasks x no OpenMP threads

MPI task timing breakdown:
Section |  min time  |  avg time  |  max time  |%varavg| %total
---------------------------------------------------------------
Pair    | 0.061348   | 0.095183   | 0.10765    |   5.1 | 31.17
Kspace  | 0.15534    | 0.1697     | 0.2058     |   4.0 | 55.57
Neigh   | 0.016139   | 0.022832   | 0.025716   |   1.9 |  7.48
Comm    | 0.014212   | 0.01562    | 0.019973   |   1.6 |  5.12
Output  | 5.4345e-05 | 6.0455e-05 | 7.8597e-05 |   0.0 |  0.02
Modify  | 0.00036938 | 0.00055597 | 0.00070024 |   0.0 |  0.18
Other   |            | 0.001407   |            |       |  0.46

Nlocal:        192.667 ave         200 max         180 min
Histogram: 1 0 1 5 2 2 3 2 4 7
Nghost:        1850.26 ave        1872 max        1828 min
Histogram: 2 1 2 4 5 4 2 4 2 1
Neighs:        16531.2 ave       17520 max       15035 min
Histogram: 1 1 1 2 5 1 5 4 4 3

Total # of neighbors = 446342
Ave neighs/atom = 85.801999
Neighbor list builds = 27
Dangerous builds = 0
unfix    eqmd

group   solvent type 1
5000 atoms in group solvent
group   water   empty
0 atoms in group water
group   ions    type 2 3
202 atoms in group ions
group   wall    type 4 5
0 atoms in group wall
group   flying  type 6 7 8
2 atoms in group flying
group   eq_run  union solvent ions flying
5202 atoms in group eq_run
            
######################################################################
pair_style   lj/cut/coul/long 2.500000 3.500000
kspace_style pppm 0.0001

# LJ (neq? False)
# real lj particles
pair_coeff  * *         1.  1.  2.5   # solvent + ions
pair_coeff  4*5 4*5     0   0   2.5   # wall atoms

        
pair_modify  tail no shift yes mix arithmetic # LB mixing rule
neigh_modify delay 2 every 1 check yes page 500000 one 50000
######################################################################
# dealing with ideal flying particles: force field=simple_lj

# Non-interacting flying lj molecule (trial deletion)
# real lj particles
pair_coeff  * *         1.  1.  2.5   # solvent + ions
pair_coeff  4*5 4*5     0   0   2.5   # wall atoms
# flying particles
pair_coeff  * 6         0   0   2.5   # flying solvent  non-interacting
pair_coeff  * 7         0   0   2.5   # flying cation   non-interacting
pair_coeff  * 8         0   0   2.5   # flying anion    non-interacting

# flying solvetn or ions
set type 6  charge 0.                       # non-interacting
Setting atom values ...
  0 settings made for charge
set type 7  charge 0.                       # non-interacting
Setting atom values ...
  1 settings made for charge
set type 8  charge 0.                       # non-interacting
Setting atom values ...
  1 settings made for charge
        
run 0 post no # making flying moelcule non-interacting
WARNING: No fixes defined, atoms won't move (../verlet.cpp:55)
PPPM initialization ...
  using 12-bit tables for long-range coulomb (../kspace.cpp:340)
  G vector (1/distance) = 0.80656374
  grid = 36 36 36
  stencil order = 5
  estimated absolute RMS force accuracy = 8.1571722e-05
  estimated relative force accuracy = 8.1571722e-05
  using single precision KISS FFT
  3d grid and FFT values/proc = 4913 2592
Neighbor list info ...
  update every 1 steps, delay 2 steps, check yes
  max neighbors/atom: 50000, page size: 500000
  master list distance cutoff = 3.8
  ghost atom cutoff = 3.8
  binsize = 1.9, bins = 11 11 11
  1 neighbor lists, perpetual/occasional/extra = 1 0 0
  (1) pair lj/cut/coul/long, perpetual
      attributes: half, newton on
      pair build: half/bin/atomonly/newton
      stencil: half/bin/3d
      bin: standard
Per MPI rank memory allocation (min/avg/max) = 5.425 | 5.447 | 5.490 Mbytes
Step Temp Atoms Density TotEng PotEng KinEng E_coul E_vdwl E_long Enthalpy Press 
   10500     0.991759     5202     0.752298 -15611.198793 -23348.408288  7737.209495   -55.999782 -22997.120437  -295.288069 -8218.238997     1.069149 
Loop time of 2.65704e-06 on 27 procs for 0 steps with 5202 atoms

# done post_propagate after NEMD
# selected salt 5001/5166
#The center of bimodal dist. on a positive side=0.800000
set type 7 type 2
Setting atom values ...
  1 settings made for type
set type 8 type 3
Setting atom values ...
  1 settings made for type
run 0 post no # lj type change (reject_delete)
WARNING: No fixes defined, atoms won't move (../verlet.cpp:55)
PPPM initialization ...
  using 12-bit tables for long-range coulomb (../kspace.cpp:340)
  G vector (1/distance) = 0.80656374
  grid = 36 36 36
  stencil order = 5
  estimated absolute RMS force accuracy = 8.1571722e-05
  estimated relative force accuracy = 8.1571722e-05
  using single precision KISS FFT
  3d grid and FFT values/proc = 4913 2592
Per MPI rank memory allocation (min/avg/max) = 5.425 | 5.447 | 5.490 Mbytes
Step Temp Atoms Density TotEng PotEng KinEng E_coul E_vdwl E_long Enthalpy Press 
   10500     0.991759     5202     0.752298 -14145.524924 -21882.734419  7737.209495   -55.999782 -21531.446567  -295.288069  -578.379078     1.962042 
Loop time of 6.24078e-06 on 27 procs for 0 steps with 5202 atoms

set atom 5001 charge 1.000000
Setting atom values ...
  1 settings made for charge
set atom 5166 charge -1.000000
Setting atom values ...
  1 settings made for charge
run 0 post no # charge return (reject_delete)
WARNING: No fixes defined, atoms won't move (../verlet.cpp:55)
PPPM initialization ...
  using 12-bit tables for long-range coulomb (../kspace.cpp:340)
  G vector (1/distance) = 0.80673798
  grid = 36 36 36
  stencil order = 5
  estimated absolute RMS force accuracy = 8.2278886e-05
  estimated relative force accuracy = 8.2278886e-05
  using single precision KISS FFT
  3d grid and FFT values/proc = 4913 2592
Per MPI rank memory allocation (min/avg/max) = 5.425 | 5.447 | 5.490 Mbytes
Step Temp Atoms Density TotEng PotEng KinEng E_coul E_vdwl E_long Enthalpy Press 
   10500     0.991759     5202     0.752298 -14146.511999 -21883.721494  7737.209495   -56.162115 -21531.446567  -296.112812  -579.694921     1.961994 
Loop time of 2.86496e-06 on 27 procs for 0 steps with 5202 atoms

run 0 post no # return_position back to old
WARNING: No fixes defined, atoms won't move (../verlet.cpp:55)
PPPM initialization ...
  using 12-bit tables for long-range coulomb (../kspace.cpp:340)
  G vector (1/distance) = 0.80673798
  grid = 36 36 36
  stencil order = 5
  estimated absolute RMS force accuracy = 8.2278886e-05
  estimated relative force accuracy = 8.2278886e-05
  using single precision KISS FFT
  3d grid and FFT values/proc = 4913 2592
Per MPI rank memory allocation (min/avg/max) = 5.425 | 5.447 | 5.490 Mbytes
Step Temp Atoms Density TotEng PotEng KinEng E_coul E_vdwl E_long Enthalpy Press 
   10500     0.998017     5202     0.752298 -15622.805824 -23408.831649  7786.025825   -54.089367 -23058.446562  -296.295720 -8511.179769     1.028463 
Loop time of 2.60919e-06 on 27 procs for 0 steps with 5202 atoms

group widom_test         delete
group noneq_run          delete
group noneq_run_rigid    delete
reset_timestep 10400

group   solvent delete
group   water   delete
group   ions    delete
group   wall    delete
group   flying  delete
group   eq_run  delete
        

group   solvent type 1
5000 atoms in group solvent
group   water   empty
0 atoms in group water
group   ions    type 2 3
202 atoms in group ions
group   wall    type 4 5
0 atoms in group wall
group   flying  type 6 7 8
0 atoms in group flying
group   eq_run  union solvent ions flying
5202 atoms in group eq_run
            
######################################################################
pair_style   lj/cut/coul/long 2.500000 3.500000
kspace_style pppm 0.0001

# LJ (neq? False)
# real lj particles
pair_coeff  * *         1.  1.  2.5   # solvent + ions
pair_coeff  4*5 4*5     0   0   2.5   # wall atoms

        
pair_modify  tail no shift yes mix arithmetic # LB mixing rule
neigh_modify delay 2 every 1 check yes page 500000 one 50000
######################################################################
# shake is off; should be a dummy run
timestep 0.005000
thermo 2000
fix  eqmd   eq_run nvt temp 1.000000 1.000000 0.500000
run 0 # (neq? False) MD run
PPPM initialization ...
  using 12-bit tables for long-range coulomb (../kspace.cpp:340)
  G vector (1/distance) = 0.80673798
  grid = 36 36 36
  stencil order = 5
  estimated absolute RMS force accuracy = 8.2278886e-05
  estimated relative force accuracy = 8.2278886e-05
  using single precision KISS FFT
  3d grid and FFT values/proc = 4913 2592
Per MPI rank memory allocation (min/avg/max) = 5.425 | 5.447 | 5.490 Mbytes
Step Temp Atoms Density TotEng PotEng KinEng E_coul E_vdwl E_long Enthalpy Press 
   10400     0.998017     5202     0.752298 -15622.805824 -23408.831649  7786.025825   -54.089367 -23058.446562  -296.295720 -8511.179769     1.028463 
Loop time of 3.6823e-06 on 27 procs for 0 steps with 5202 atoms

119.7% CPU use with 27 MPI tasks x no OpenMP threads

MPI task timing breakdown:
Section |  min time  |  avg time  |  max time  |%varavg| %total
---------------------------------------------------------------
Pair    | 0          | 0          | 0          |   0.0 |  0.00
Kspace  | 0          | 0          | 0          |   0.0 |  0.00
Neigh   | 0          | 0          | 0          |   0.0 |  0.00
Comm    | 0          | 0          | 0          |   0.0 |  0.00
Output  | 0          | 0          | 0          |   0.0 |  0.00
Modify  | 0          | 0          | 0          |   0.0 |  0.00
Other   |            | 3.682e-06  |            |       |100.00

Nlocal:        192.667 ave         198 max         179 min
Histogram: 1 0 0 2 1 2 5 4 7 5
Nghost:        1850.70 ave        1873 max        1837 min
Histogram: 3 4 4 5 3 2 3 1 1 1
Neighs:        16522.8 ave       17287 max       15044 min
Histogram: 1 1 0 1 2 6 3 4 4 5

Total # of neighbors = 446116
Ave neighs/atom = 85.758554
Neighbor list builds = 0
Dangerous builds = 0
unfix    eqmd
#chosen_cation deletion_move 7.512441 9.433025 4.874779 # select_molecule
#chosen_anion deletion_move 8.043038 -7.969942 5.704726 # select_molecule
# selected_velocity_salt 5013 cation vel 1.365199 0.447155 -0.783336
# selected_velocity_salt 5154 anion vel 0.334917 -0.081040 -0.902381
group widom_test id  5013 5154 # select_molecule
2 atoms in group widom_test
set atom 5013 type 7
Setting atom values ...
  1 settings made for type
set atom 5154 type 8
Setting atom values ...
  1 settings made for type
run 0 post no # done selecting a flying molecule
WARNING: No fixes defined, atoms won't move (../verlet.cpp:55)
PPPM initialization ...
  using 12-bit tables for long-range coulomb (../kspace.cpp:340)
  G vector (1/distance) = 0.80673798
  grid = 36 36 36
  stencil order = 5
  estimated absolute RMS force accuracy = 8.2278886e-05
  estimated relative force accuracy = 8.2278886e-05
  using single precision KISS FFT
  3d grid and FFT values/proc = 4913 2592
Per MPI rank memory allocation (min/avg/max) = 5.425 | 5.447 | 5.490 Mbytes
Step Temp Atoms Density TotEng PotEng KinEng E_coul E_vdwl E_long Enthalpy Press 
   10400     0.998017     5202     0.752298 -15622.805824 -23408.831649  7786.025825   -54.089367 -23058.446562  -296.295720 -8511.179769     1.028463 
Loop time of 3.16815e-06 on 27 procs for 0 steps with 5202 atoms

group noneq_run_rigid    intersect   all         water               # select_salt no selection
0 atoms in group noneq_run_rigid
group noneq_run_pre      subtract    all         noneq_run_rigid     # select_salt no selection
5202 atoms in group noneq_run_pre
group noneq_run          subtract    noneq_run_pre   widom_test      # select_salt no selection
[...]
pair_coeff  * 7         0   0   2.5   # flying cation   non-interacting
pair_coeff  * 8         0   0   2.5   # flying anion    non-interacting

# flying solvetn or ions
set type 6  charge 0.                       # non-interacting
Setting atom values ...
  0 settings made for charge
set type 7  charge 0.                       # non-interacting
Setting atom values ...
  1 settings made for charge
set type 8  charge 0.                       # non-interacting
Setting atom values ...
  1 settings made for charge
        
run 0 post no # making flying moelcule non-interacting
WARNING: No fixes defined, atoms won't move (../verlet.cpp:55)
PPPM initialization ...
  using 12-bit tables for long-range coulomb (../kspace.cpp:340)
  G vector (1/distance) = 0.80656374
  grid = 36 36 36
  stencil order = 5
  estimated absolute RMS force accuracy = 8.1571722e-05
  estimated relative force accuracy = 8.1571722e-05
  using single precision KISS FFT
  3d grid and FFT values/proc = 4913 2592
Neighbor list info ...
  update every 1 steps, delay 2 steps, check yes
  max neighbors/atom: 50000, page size: 500000
  master list distance cutoff = 3.8
  ghost atom cutoff = 3.8
  binsize = 1.9, bins = 11 11 11
  1 neighbor lists, perpetual/occasional/extra = 1 0 0
  (1) pair lj/cut/coul/long, perpetual
      attributes: half, newton on
      pair build: half/bin/atomonly/newton
      stencil: half/bin/3d
      bin: standard
Per MPI rank memory allocation (min/avg/max) = 5.425 | 5.447 | 5.490 Mbytes
Step Temp Atoms Density TotEng PotEng KinEng E_coul E_vdwl E_long Enthalpy Press 
   10500     0.987941     5202     0.752298 -15596.841391 -23304.263837  7707.422446   -56.038224 -22956.375888  -291.849725 -8090.380882     1.085563 
Loop time of 2.76552e-06 on 27 procs for 0 steps with 5202 atoms

# done post_propagate after NEMD
# selected salt 5014/5176
#The center of bimodal dist. on a positive side=0.800000
set type 7 type 2
Setting atom values ...
  1 settings made for type
set type 8 type 3
Setting atom values ...
  1 settings made for type
run 0 post no # lj type change (reject_delete)
WARNING: No fixes defined, atoms won't move (../verlet.cpp:55)
PPPM initialization ...
  using 12-bit tables for long-range coulomb (../kspace.cpp:340)
  G vector (1/distance) = 0.80656374
  grid = 36 36 36
  stencil order = 5
  estimated absolute RMS force accuracy = 8.1571722e-05
  estimated relative force accuracy = 8.1571722e-05
  using single precision KISS FFT
  3d grid and FFT values/proc = 4913 2592
Per MPI rank memory allocation (min/avg/max) = 5.425 | 5.447 | 5.490 Mbytes
Step Temp Atoms Density TotEng PotEng KinEng E_coul E_vdwl E_long Enthalpy Press 
   10500     0.987941     5202     0.752298 -14198.695849 -21906.118295  7707.422446   -56.038224 -21558.230346  -291.849725  -717.894790     1.949555 
Loop time of 2.97867e-06 on 27 procs for 0 steps with 5202 atoms

set atom 5014 charge 1.000000
Setting atom values ...
  1 settings made for charge
set atom 5176 charge -1.000000
Setting atom values ...
  1 settings made for charge
run 0 post no # charge return (reject_delete)
WARNING: No fixes defined, atoms won't move (../verlet.cpp:55)
PPPM initialization ...
  using 12-bit tables for long-range coulomb (../kspace.cpp:340)
  G vector (1/distance) = 0.80673798
  grid = 36 36 36
  stencil order = 5
  estimated absolute RMS force accuracy = 8.2278886e-05
  estimated relative force accuracy = 8.2278886e-05
  using single precision KISS FFT
  3d grid and FFT values/proc = 4913 2592
Per MPI rank memory allocation (min/avg/max) = 5.425 | 5.447 | 5.490 Mbytes
Step Temp Atoms Density TotEng PotEng KinEng E_coul E_vdwl E_long Enthalpy Press 
   10500     0.987941     5202     0.752298 -14203.096074 -21910.518520  7707.422446   -56.280518 -21558.230346  -296.007655  -723.761612     1.949343 
Loop time of 2.45693e-06 on 27 procs for 0 steps with 5202 atoms

run 0 post no # return_position back to old
WARNING: No fixes defined, atoms won't move (../verlet.cpp:55)
PPPM initialization ...
  using 12-bit tables for long-range coulomb (../kspace.cpp:340)
  G vector (1/distance) = 0.80673798
  grid = 36 36 36
  stencil order = 5
  estimated absolute RMS force accuracy = 8.2278886e-05
  estimated relative force accuracy = 8.2278886e-05
  using single precision KISS FFT
  3d grid and FFT values/proc = 4913 2592
Per MPI rank memory allocation (min/avg/max) = 5.425 | 5.447 | 5.490 Mbytes
Step Temp Atoms Density TotEng PotEng KinEng E_coul E_vdwl E_long Enthalpy Press 
   10500     0.998017     5202     0.752298 -15622.805824 -23408.831649  7786.025825   -54.089367 -23058.446562  -296.295720 -8511.179769     1.028463 
Loop time of 2.62144e-06 on 27 procs for 0 steps with 5202 atoms

group widom_test         delete
group noneq_run          delete
group noneq_run_rigid    delete
reset_timestep 10400

group   solvent delete
group   water   delete
group   ions    delete
group   wall    delete
group   flying  delete
group   eq_run  delete
        

group   solvent type 1
5000 atoms in group solvent
group   water   empty
0 atoms in group water
group   ions    type 2 3
202 atoms in group ions
group   wall    type 4 5
0 atoms in group wall
group   flying  type 6 7 8
0 atoms in group flying
group   eq_run  union solvent ions flying
5202 atoms in group eq_run
            
######################################################################
pair_style   lj/cut/coul/long 2.500000 3.500000
kspace_style pppm 0.0001

# LJ (neq? False)
# real lj particles
pair_coeff  * *         1.  1.  2.5   # solvent + ions
pair_coeff  4*5 4*5     0   0   2.5   # wall atoms

        
pair_modify  tail no shift yes mix arithmetic # LB mixing rule
neigh_modify delay 2 every 1 check yes page 500000 one 50000
######################################################################
# shake is off; should be a dummy run
timestep 0.005000
thermo 2000
fix  eqmd   eq_run nvt temp 1.000000 1.000000 0.500000
run 0 # (neq? False) MD run
PPPM initialization ...
  using 12-bit tables for long-range coulomb (../kspace.cpp:340)
  G vector (1/distance) = 0.80673798
  grid = 36 36 36
  stencil order = 5
  estimated absolute RMS force accuracy = 8.2278886e-05
  estimated relative force accuracy = 8.2278886e-05
  using single precision KISS FFT
  3d grid and FFT values/proc = 4913 2592
Per MPI rank memory allocation (min/avg/max) = 5.425 | 5.447 | 5.490 Mbytes
Step Temp Atoms Density TotEng PotEng KinEng E_coul E_vdwl E_long Enthalpy Press 
   10400     0.998017     5202     0.752298 -15622.805824 -23408.831649  7786.025825   -54.089367 -23058.446562  -296.295720 -8511.179769     1.028463 
Loop time of 2.73663e-06 on 27 procs for 0 steps with 5202 atoms

113.7% CPU use with 27 MPI tasks x no OpenMP threads

MPI task timing breakdown:
Section |  min time  |  avg time  |  max time  |%varavg| %total
---------------------------------------------------------------
Pair    | 0          | 0          | 0          |   0.0 |  0.00
Kspace  | 0          | 0          | 0          |   0.0 |  0.00
Neigh   | 0          | 0          | 0          |   0.0 |  0.00
Comm    | 0          | 0          | 0          |   0.0 |  0.00
Output  | 0          | 0          | 0          |   0.0 |  0.00
Modify  | 0          | 0          | 0          |   0.0 |  0.00
Other   |            | 2.737e-06  |            |       |100.00

Nlocal:        192.667 ave         198 max         179 min
Histogram: 1 0 0 2 1 2 5 4 7 5
Nghost:        1850.70 ave        1873 max        1837 min
Histogram: 3 4 4 5 3 2 3 1 1 1
Neighs:        16522.8 ave       17287 max       15044 min
Histogram: 1 1 0 1 2 6 3 4 4 5

Total # of neighbors = 446116
Ave neighs/atom = 85.758554
Neighbor list builds = 0
Dangerous builds = 0
unfix    eqmd
#chosen_cation deletion_move -3.240793 -4.018593 -1.624772 # select_molecule
#chosen_anion deletion_move -4.044819 -4.531457 -1.239993 # select_molecule
# selected_velocity_salt 5015 cation vel 1.128028 1.909580 0.912999
# selected_velocity_salt 5165 anion vel -0.040879 1.088452 -0.281079
group widom_test id  5015 5165 # select_molecule
2 atoms in group widom_test
set atom 5015 type 7
Setting atom values ...
  1 settings made for type
set atom 5165 type 8
Setting atom values ...
  1 settings made for type
run 0 post no # done selecting a flying molecule
WARNING: No fixes defined, atoms won't move (../verlet.cpp:55)
PPPM initialization ...
  using 12-bit tables for long-range coulomb (../kspace.cpp:340)
  G vector (1/distance) = 0.80673798
  grid = 36 36 36
  stencil order = 5
  estimated absolute RMS force accuracy = 8.2278886e-05
  estimated relative force accuracy = 8.2278886e-05
  using single precision KISS FFT
  3d grid and FFT values/proc = 4913 2592
Per MPI rank memory allocation (min/avg/max) = 5.425 | 5.447 | 5.490 Mbytes
Step Temp Atoms Density TotEng PotEng KinEng E_coul E_vdwl E_long Enthalpy Press 
   10400     0.998017     5202     0.752298 -15622.805824 -23408.831649  7786.025825   -54.089367 -23058.446562  -296.295720 -8511.179769     1.028463 
Loop time of 2.88067e-06 on 27 procs for 0 steps with 5202 atoms

group noneq_run_rigid    intersect   all         water               # select_salt no selection
0 atoms in group noneq_run_rigid
group noneq_run_pre      subtract    all         noneq_run_rigid     # select_salt no selection
5202 atoms in group noneq_run_pre
group noneq_run          subtract    noneq_run_pre   widom_test      # select_salt no selection
5200 atoms in group noneq_run
group noneq_run_pre      delete
run 0 post no # mom rev random number
WARNING: No fixes defined, atoms won't move (../verlet.cpp:55)
PPPM initialization ...
  using 12-bit tables for long-range coulomb (../kspace.cpp:340)
  G vector (1/distance) = 0.80673798
  grid = 36 36 36
  stencil order = 5
  estimated absolute RMS force accuracy = 8.2278886e-05
  estimated relative force accuracy = 8.2278886e-05
  using single precision KISS FFT
  3d grid and FFT values/proc = 4913 2592
Per MPI rank memory allocation (min/avg/max) = 5.425 | 5.447 | 5.490 Mbytes
Step Temp Atoms Density TotEng PotEng KinEng E_coul E_vdwl E_long Enthalpy Press 
   10400     0.998017     5202     0.752298 -15622.805824 -23408.831649  7786.025825   -54.089367 -23058.446562  -296.295720 -8511.179769     1.028463 
Loop time of 2.75222e-06 on 27 procs for 0 steps with 5202 atoms

######################################################################
pair_style   lj/cut/coul/long/neq 2.500000 3.500000 10400 100 1.000000 5 0 0 1.000000 1.000000 11 1.000000
kspace_style pppm 0.0001

# LJ (neq? True)
# real lj particles
pair_coeff  * *         1.  1.  2.5   # solvent + ions
pair_coeff  4*5 4*5     0   0   2.5   # wall atoms

        
pair_modify  tail no shift yes mix arithmetic # LB mixing rule
neigh_modify delay 2 every 1 check yes page 500000 one 50000
######################################################################
timestep 0.010000
fix  eqmd  noneq_run           nve                 # nve for non-rigid
run 100 # (neq? True) MD run
PPPM initialization ...
  using 12-bit tables for long-range coulomb (../kspace.cpp:340)
  G vector (1/distance) = 0.80673798
  grid = 36 36 36
  stencil order = 5
  estimated absolute RMS force accuracy = 8.2278886e-05
  estimated relative force accuracy = 8.2278886e-05
  using single precision KISS FFT
  3d grid and FFT values/proc = 4913 2592
Neighbor list info ...
  update every 1 steps, delay 2 steps, check yes
  max neighbors/atom: 50000, page size: 500000
  master list distance cutoff = 3.8
  ghost atom cutoff = 3.8
  binsize = 1.9, bins = 11 11 11
  1 neighbor lists, perpetual/occasional/extra = 1 0 0
  (1) pair lj/cut/coul/long/neq, perpetual
      attributes: half, newton on
      pair build: half/bin/atomonly/newton
      stencil: half/bin/3d
      bin: standard
Per MPI rank memory allocation (min/avg/max) = 5.425 | 5.447 | 5.490 Mbytes
Step Temp Atoms Density TotEng PotEng KinEng E_coul E_vdwl E_long Enthalpy Press 
   10400     0.998017     5202     0.752298 -15622.805824 -23408.831649  7786.025825   -54.089367 -23058.446562  -296.295720 -8511.179769     1.028463 
   10500     0.988489     5202     0.752298 -15616.576940 -23328.270210  7711.693270   -56.381456 -22975.235196  -296.653558 -8120.737829     1.084027 
Loop time of 0.305256 on 27 procs for 100 steps with 5202 atoms

Performance: 283040.722 tau/day, 327.593 timesteps/s
93.2% CPU use with 27 MPI tasks x no OpenMP threads

MPI task timing breakdown:
Section |  min time  |  avg time  |  max time  |%varavg| %total
---------------------------------------------------------------
Pair    | 0.061952   | 0.095091   | 0.10802    |   5.1 | 31.15
Kspace  | 0.15486    | 0.16982    | 0.2051     |   4.1 | 55.63
Neigh   | 0.015932   | 0.022803   | 0.025736   |   2.1 |  7.47
Comm    | 0.014147   | 0.01554    | 0.019774   |   1.5 |  5.09
Output  | 5.1129e-05 | 5.7614e-05 | 8.1256e-05 |   0.0 |  0.02
Modify  | 0.00037467 | 0.00055873 | 0.00070464 |   0.0 |  0.18
Other   |            | 0.001383   |            |       |  0.45

Nlocal:        192.667 ave         201 max         179 min
Histogram: 1 0 1 2 4 6 2 3 5 3
Nghost:        1849.26 ave        1866 max        1830 min
Histogram: 2 2 3 3 3 2 4 1 2 5
Neighs:        16533.4 ave       17932 max       14949 min
Histogram: 1 0 2 4 4 7 5 2 1 1

Total # of neighbors = 446402
Ave neighs/atom = 85.813533
Neighbor list builds = 27
Dangerous builds = 0
unfix    eqmd

group   solvent type 1
5000 atoms in group solvent
group   water   empty
0 atoms in group water
group   ions    type 2 3
202 atoms in group ions
group   wall    type 4 5
0 atoms in group wall
group   flying  type 6 7 8
2 atoms in group flying
group   eq_run  union solvent ions flying
5202 atoms in group eq_run
            
######################################################################
pair_style   lj/cut/coul/long 2.500000 3.500000
kspace_style pppm 0.0001

# LJ (neq? False)
# real lj particles
pair_coeff  * *         1.  1.  2.5   # solvent + ions
pair_coeff  4*5 4*5     0   0   2.5   # wall atoms

        
pair_modify  tail no shift yes mix arithmetic # LB mixing rule
neigh_modify delay 2 every 1 check yes page 500000 one 50000
######################################################################
# dealing with ideal flying particles: force field=simple_lj

# Non-interacting flying lj molecule (trial deletion)
# real lj particles
pair_coeff  * *         1.  1.  2.5   # solvent + ions
pair_coeff  4*5 4*5     0   0   2.5   # wall atoms
# flying particles
pair_coeff  * 6         0   0   2.5   # flying solvent  non-interacting
pair_coeff  * 7         0   0   2.5   # flying cation   non-interacting
pair_coeff  * 8         0   0   2.5   # flying anion    non-interacting

# flying solvetn or ions
set type 6  charge 0.                       # non-interacting
Setting atom values ...
  0 settings made for charge
set type 7  charge 0.                       # non-interacting
Setting atom values ...
  1 settings made for charge
set type 8  charge 0.                       # non-interacting
Setting atom values ...
  1 settings made for charge
        
run 0 post no # making flying moelcule non-interacting
WARNING: No fixes defined, atoms won't move (../verlet.cpp:55)
PPPM initialization ...
  using 12-bit tables for long-range coulomb (../kspace.cpp:340)
  G vector (1/distance) = 0.80656374
  grid = 36 36 36
  stencil order = 5
  estimated absolute RMS force accuracy = 8.1571722e-05
  estimated relative force accuracy = 8.1571722e-05
  using single precision KISS FFT
  3d grid and FFT values/proc = 4913 2592
Neighbor list info ...
  update every 1 steps, delay 2 steps, check yes
  max neighbors/atom: 50000, page size: 500000
  master list distance cutoff = 3.8
  ghost atom cutoff = 3.8
  binsize = 1.9, bins = 11 11 11
  1 neighbor lists, perpetual/occasional/extra = 1 0 0
  (1) pair lj/cut/coul/long, perpetual
      attributes: half, newton on
      pair build: half/bin/atomonly/newton
      stencil: half/bin/3d
      bin: standard
Per MPI rank memory allocation (min/avg/max) = 5.425 | 5.447 | 5.490 Mbytes
Step Temp Atoms Density TotEng PotEng KinEng E_coul E_vdwl E_long Enthalpy Press 
   10500     0.988489     5202     0.752298 -15603.242141 -23314.935411  7711.693270   -56.223456 -22966.102573  -292.609382 -8101.911825     1.084821 
Loop time of 2.93574e-06 on 27 procs for 0 steps with 5202 atoms

# done post_propagate after NEMD
# selected salt 5015/5165
#The center of bimodal dist. on a positive side=0.800000
set type 7 type 2
Setting atom values ...
  1 settings made for type
set type 8 type 3
Setting atom values ...
  1 settings made for type
run 0 post no # lj type change (reject_delete)
WARNING: No fixes defined, atoms won't move (../verlet.cpp:55)
PPPM initialization ...
  using 12-bit tables for long-range coulomb (../kspace.cpp:340)
  G vector (1/distance) = 0.80656374
  grid = 36 36 36
  stencil order = 5
  estimated absolute RMS force accuracy = 8.1571722e-05
  estimated relative force accuracy = 8.1571722e-05
  using single precision KISS FFT
  3d grid and FFT values/proc = 4913 2592
Per MPI rank memory allocation (min/avg/max) = 5.425 | 5.447 | 5.490 Mbytes
Step Temp Atoms Density TotEng PotEng KinEng E_coul E_vdwl E_long Enthalpy Press 
   10500     0.988489     5202     0.752298 -9877.980972 -17589.674242  7711.693270   -56.223456 -17240.841404  -292.609382 21071.561162     4.475835 
Loop time of 2.76778e-06 on 27 procs for 0 steps with 5202 atoms

set atom 5015 charge 1.000000
Setting atom values ...
  1 settings made for charge
set atom 5165 charge -1.000000
Setting atom values ...
  1 settings made for charge
run 0 post no # charge return (reject_delete)
WARNING: No fixes defined, atoms won't move (../verlet.cpp:55)
PPPM initialization ...
  using 12-bit tables for long-range coulomb (../kspace.cpp:340)
  G vector (1/distance) = 0.80673798
  grid = 36 36 36
  stencil order = 5
  estimated absolute RMS force accuracy = 8.2278886e-05
  estimated relative force accuracy = 8.2278886e-05
  using single precision KISS FFT
  3d grid and FFT values/proc = 4913 2592
Per MPI rank memory allocation (min/avg/max) = 5.425 | 5.447 | 5.490 Mbytes
Step Temp Atoms Density TotEng PotEng KinEng E_coul E_vdwl E_long Enthalpy Press 
   10500     0.988489     5202     0.752298 -9883.354952 -17595.048222  7711.693270   -57.553260 -17240.841404  -296.653558 21064.396097     4.475576 
Loop time of 2.59744e-06 on 27 procs for 0 steps with 5202 atoms

run 0 post no # return_position back to old
WARNING: No fixes defined, atoms won't move (../verlet.cpp:55)
PPPM initialization ...
  using 12-bit tables for long-range coulomb (../kspace.cpp:340)
  G vector (1/distance) = 0.80673798
  grid = 36 36 36
  stencil order = 5
  estimated absolute RMS force accuracy = 8.2278886e-05
  estimated relative force accuracy = 8.2278886e-05
  using single precision KISS FFT
  3d grid and FFT values/proc = 4913 2592
Per MPI rank memory allocation (min/avg/max) = 5.425 | 5.447 | 5.490 Mbytes
Step Temp Atoms Density TotEng PotEng KinEng E_coul E_vdwl E_long Enthalpy Press 
   10500     0.998017     5202     0.752298 -15622.805823 -23408.831648  7786.025825   -54.089367 -23058.446562  -296.295720 -8511.179769     1.028463 
Loop time of 3.07719e-06 on 27 procs for 0 steps with 5202 atoms

group widom_test         delete
group noneq_run          delete
group noneq_run_rigid    delete
reset_timestep 10400

group   solvent delete
group   water   delete
group   ions    delete
group   wall    delete
group   flying  delete
group   eq_run  delete
        
write_data restart_after_MC_0.data pair ij
System init for write_data ...
PPPM initialization ...
  using 12-bit tables for long-range coulomb (../kspace.cpp:340)
  G vector (1/distance) = 0.80673798
  grid = 36 36 36
  stencil order = 5
  estimated absolute RMS force accuracy = 8.2278886e-05
  estimated relative force accuracy = 8.2278886e-05
  using single precision KISS FFT
  3d grid and FFT values/proc = 4913 2592
log logfile_hneqMDMC.1
