
group   solvent type 1
5000 atoms in group solvent
group   water   empty
0 atoms in group water
group   ions    type 2 3
202 atoms in group ions
group   wall    type 4 5
0 atoms in group wall
group   flying  type 6 7 8
0 atoms in group flying
group   eq_run  union solvent ions flying
5202 atoms in group eq_run
            
######################################################################
pair_style   lj/cut/coul/long 2.500000 3.500000
kspace_style pppm 0.0001

# LJ (neq? False)
# real lj particles
pair_coeff  * *         1.  1.  2.5   # solvent + ions
pair_coeff  4*5 4*5     0   0   2.5   # wall atoms

        
pair_modify  tail no shift yes mix arithmetic # LB mixing rule
neigh_modify delay 2 every 1 check yes page 500000 one 50000
######################################################################
timestep 0.005000
thermo 2000
fix  eqmd   eq_run nvt temp 1.000000 1.000000 0.500000
run 400 # (neq? False) MD run
PPPM initialization ...
  using 12-bit tables for long-range coulomb (../kspace.cpp:340)
  G vector (1/distance) = 0.80673798
  grid = 36 36 36
  stencil order = 5
  estimated absolute RMS force accuracy = 8.2278886e-05
  estimated relative force accuracy = 8.2278886e-05
  using single precision KISS FFT
  3d grid and FFT values/proc = 4913 2592
Per MPI rank memory allocation (min/avg/max) = 5.425 | 5.447 | 5.490 Mbytes
Step Temp Atoms Density TotEng PotEng KinEng E_coul E_vdwl E_long Enthalpy Press 
   10400     0.998017     5202     0.752298 -15622.805823 -23408.831648  7786.025825   -54.089367 -23058.446562  -296.295720 -8511.179769     1.028463 
   10800     0.983209     5202     0.752298 -15803.720738 -23474.228608  7670.507871   -60.386407 -23104.598253  -309.243948 -9016.530879     0.981544 
Loop time of 1.16911 on 27 procs for 400 steps with 5202 atoms

Performance: 147805.216 tau/day, 342.142 timesteps/s
93.0% CPU use with 27 MPI tasks x no OpenMP threads

MPI task timing breakdown:
Section |  min time  |  avg time  |  max time  |%varavg| %total
---------------------------------------------------------------
Pair    | 0.23967    | 0.3722     | 0.42883    |  10.2 | 31.84
Kspace  | 0.62355    | 0.68152    | 0.80881    |   7.3 | 58.29
Neigh   | 0.034724   | 0.048717   | 0.054911   |   3.0 |  4.17
Comm    | 0.04883    | 0.055084   | 0.073184   |   3.4 |  4.71
Output  | 5.0745e-05 | 5.406e-05  | 7.5382e-05 |   0.0 |  0.00
Modify  | 0.0055279  | 0.0076483  | 0.011002   |   1.6 |  0.65
Other   |            | 0.003891   |            |       |  0.33

Nlocal:        192.667 ave         202 max         179 min
Histogram: 1 1 0 4 3 3 6 3 4 2
Nghost:        1854.00 ave        1885 max        1825 min
Histogram: 3 0 2 4 6 2 5 2 0 3
Neighs:        16524.6 ave       17828 max       14723 min
Histogram: 2 0 1 1 7 5 1 4 3 3

Total # of neighbors = 446163
Ave neighs/atom = 85.767589
Neighbor list builds = 57
Dangerous builds = 0
unfix    eqmd

group   solvent type 1
5000 atoms in group solvent
group   water   empty
0 atoms in group water
group   ions    type 2 3
202 atoms in group ions
group   wall    type 4 5
0 atoms in group wall
group   flying  type 6 7 8
0 atoms in group flying
group   eq_run  union solvent ions flying
5202 atoms in group eq_run
            
######################################################################
pair_style   lj/cut/coul/long 2.500000 3.500000
kspace_style pppm 0.0001

# LJ (neq? False)
# real lj particles
pair_coeff  * *         1.  1.  2.5   # solvent + ions
pair_coeff  4*5 4*5     0   0   2.5   # wall atoms

        
pair_modify  tail no shift yes mix arithmetic # LB mixing rule
neigh_modify delay 2 every 1 check yes page 500000 one 50000
######################################################################
# shake is off; should be a dummy run
timestep 0.005000
thermo 2000
fix  eqmd   eq_run nvt temp 1.000000 1.000000 0.500000
run 0 # (neq? False) MD run
PPPM initialization ...
  using 12-bit tables for long-range coulomb (../kspace.cpp:340)
  G vector (1/distance) = 0.80673798
  grid = 36 36 36
  stencil order = 5
  estimated absolute RMS force accuracy = 8.2278886e-05
  estimated relative force accuracy = 8.2278886e-05
  using single precision KISS FFT
  3d grid and FFT values/proc = 4913 2592
Per MPI rank memory allocation (min/avg/max) = 5.425 | 5.447 | 5.490 Mbytes
Step Temp Atoms Density TotEng PotEng KinEng E_coul E_vdwl E_long Enthalpy Press 
   10800     0.983209     5202     0.752298 -15803.720738 -23474.228609  7670.507871   -60.386407 -23104.598253  -309.243949 -9016.530879     0.981544 
Loop time of 2.93107e-06 on 27 procs for 0 steps with 5202 atoms

132.7% CPU use with 27 MPI tasks x no OpenMP threads

MPI task timing breakdown:
Section |  min time  |  avg time  |  max time  |%varavg| %total
---------------------------------------------------------------
Pair    | 0          | 0          | 0          |   0.0 |  0.00
Kspace  | 0          | 0          | 0          |   0.0 |  0.00
Neigh   | 0          | 0          | 0          |   0.0 |  0.00
Comm    | 0          | 0          | 0          |   0.0 |  0.00
Output  | 0          | 0          | 0          |   0.0 |  0.00
Modify  | 0          | 0          | 0          |   0.0 |  0.00
Other   |            | 2.931e-06  |            |       |100.00

Nlocal:        192.667 ave         205 max         181 min
Histogram: 2 1 2 5 5 4 3 2 2 1
Nghost:        1853.52 ave        1887 max        1819 min
Histogram: 1 1 3 1 9 2 4 4 0 2
Neighs:        16521.7 ave       17767 max       14964 min
Histogram: 2 0 2 3 5 5 2 2 3 3

Total # of neighbors = 446087
Ave neighs/atom = 85.752980
Neighbor list builds = 0
Dangerous builds = 0
unfix    eqmd
#chosen_cation deletion_move 7.851227 9.409275 3.249812 # select_molecule
#chosen_anion deletion_move 5.494569 -8.414577 4.223060 # select_molecule
# selected_velocity_salt 5013 cation vel -0.445344 0.313417 -0.826043
# selected_velocity_salt 5121 anion vel -0.687418 0.483802 0.999158
group widom_test id  5013 5121 # select_molecule
2 atoms in group widom_test
set atom 5013 type 7
Setting atom values ...
  1 settings made for type
set atom 5121 type 8
Setting atom values ...
  1 settings made for type
run 0 post no # done selecting a flying molecule
WARNING: No fixes defined, atoms won't move (../verlet.cpp:55)
PPPM initialization ...
  using 12-bit tables for long-range coulomb (../kspace.cpp:340)
  G vector (1/distance) = 0.80673798
  grid = 36 36 36
  stencil order = 5
  estimated absolute RMS force accuracy = 8.2278886e-05
  estimated relative force accuracy = 8.2278886e-05
  using single precision KISS FFT
  3d grid and FFT values/proc = 4913 2592
Per MPI rank memory allocation (min/avg/max) = 5.425 | 5.447 | 5.490 Mbytes
Step Temp Atoms Density TotEng PotEng KinEng E_coul E_vdwl E_long Enthalpy Press 
   10800     0.983209     5202     0.752298 -15803.720738 -23474.228609  7670.507871   -60.386407 -23104.598253  -309.243949 -9016.530879     0.981544 
Loop time of 3.18911e-06 on 27 procs for 0 steps with 5202 atoms

group noneq_run_rigid    intersect   all         water               # select_salt no selection
0 atoms in group noneq_run_rigid
group noneq_run_pre      subtract    all         noneq_run_rigid     # select_salt no selection
5202 atoms in group noneq_run_pre
group noneq_run          subtract    noneq_run_pre   widom_test      # select_salt no selection
5200 atoms in group noneq_run
group noneq_run_pre      delete
run 0 post no # mom rev random number
WARNING: No fixes defined, atoms won't move (../verlet.cpp:55)
PPPM initialization ...
  using 12-bit tables for long-range coulomb (../kspace.cpp:340)
  G vector (1/distance) = 0.80673798
  grid = 36 36 36
  stencil order = 5
  estimated absolute RMS force accuracy = 8.2278886e-05
  estimated relative force accuracy = 8.2278886e-05
  using single precision KISS FFT
  3d grid and FFT values/proc = 4913 2592
Per MPI rank memory allocation (min/avg/max) = 5.425 | 5.447 | 5.490 Mbytes
Step Temp Atoms Density TotEng PotEng KinEng E_coul E_vdwl E_long Enthalpy Press 
   10800     0.983209     5202     0.752298 -15803.720738 -23474.228609  7670.507871   -60.386407 -23104.598253  -309.243949 -9016.530879     0.981544 
Loop time of 2.74452e-06 on 27 procs for 0 steps with 5202 atoms

######################################################################
pair_style   lj/cut/coul/long/neq 2.500000 3.500000 10800 100 1.000000 5 0 0 1.000000 1.000000 11 1.000000
kspace_style pppm 0.0001

# LJ (neq? True)
# real lj particles
pair_coeff  * *         1.  1.  2.5   # solvent + ions
pair_coeff  4*5 4*5     0   0   2.5   # wall atoms

        
pair_modify  tail no shift yes mix arithmetic # LB mixing rule
neigh_modify delay 2 every 1 check yes page 500000 one 50000
######################################################################
timestep 0.010000
fix  eqmd  noneq_run           nve                 # nve for non-rigid
run 100 # (neq? True) MD run
PPPM initialization ...
  using 12-bit tables for long-range coulomb (../kspace.cpp:340)
  G vector (1/distance) = 0.80673798
  grid = 36 36 36
  stencil order = 5
  estimated absolute RMS force accuracy = 8.2278886e-05
  estimated relative force accuracy = 8.2278886e-05
  using single precision KISS FFT
  3d grid and FFT values/proc = 4913 2592
Neighbor list info ...
  update every 1 steps, delay 2 steps, check yes
  max neighbors/atom: 50000, page size: 500000
  master list distance cutoff = 3.8
  ghost atom cutoff = 3.8
  binsize = 1.9, bins = 11 11 11
  1 neighbor lists, perpetual/occasional/extra = 1 0 0
  (1) pair lj/cut/coul/long/neq, perpetual
      attributes: half, newton on
      pair build: half/bin/atomonly/newton
      stencil: half/bin/3d
      bin: standard
Per MPI rank memory allocation (min/avg/max) = 5.425 | 5.447 | 5.490 Mbytes
Step Temp Atoms Density TotEng PotEng KinEng E_coul E_vdwl E_long Enthalpy Press 
   10800     0.983209     5202     0.752298 -15803.720738 -23474.228609  7670.507871   -60.386407 -23104.598253  -309.243949 -9016.530879     0.981544 
   10900     0.981923     5202     0.752298 -15796.839176 -23457.313159  7660.473983   -58.012440 -23093.912203  -305.388516 -9044.934581     0.976441 
Loop time of 0.306775 on 27 procs for 100 steps with 5202 atoms

Performance: 281639.424 tau/day, 325.972 timesteps/s
93.1% CPU use with 27 MPI tasks x no OpenMP threads

MPI task timing breakdown:
Section |  min time  |  avg time  |  max time  |%varavg| %total
---------------------------------------------------------------
Pair    | 0.06014    | 0.095346   | 0.11142    |   5.1 | 31.08
Kspace  | 0.15509    | 0.1721     | 0.20954    |   4.0 | 56.10
Neigh   | 0.015302   | 0.021795   | 0.025098   |   1.9 |  7.10
Comm    | 0.013658   | 0.015366   | 0.019508   |   1.6 |  5.01
Output  | 5.3619e-05 | 6.3785e-05 | 0.00018697 |   0.0 |  0.02
Modify  | 0.00036138 | 0.0005305  | 0.0006628  |   0.0 |  0.17
Other   |            | 0.001578   |            |       |  0.51

Nlocal:        192.667 ave         205 max         178 min
Histogram: 1 0 3 1 8 4 3 4 1 2
Nghost:        1843.70 ave        1865 max        1818 min
Histogram: 2 2 0 3 4 5 2 5 1 3
Neighs:        16520.7 ave       17894 max       14762 min
Histogram: 1 0 3 4 0 7 6 1 3 2

Total # of neighbors = 446059
Ave neighs/atom = 85.747597
Neighbor list builds = 26
Dangerous builds = 0
unfix    eqmd

group   solvent type 1
5000 atoms in group solvent
group   water   empty
0 atoms in group water
group   ions    type 2 3
202 atoms in group ions
group   wall    type 4 5
0 atoms in group wall
group   flying  type 6 7 8
2 atoms in group flying
group   eq_run  union solvent ions flying
5202 atoms in group eq_run
            
######################################################################
pair_style   lj/cut/coul/long 2.500000 3.500000
kspace_style pppm 0.0001

# LJ (neq? False)
# real lj particles
pair_coeff  * *         1.  1.  2.5   # solvent + ions
pair_coeff  4*5 4*5     0   0   2.5   # wall atoms

        
pair_modify  tail no shift yes mix arithmetic # LB mixing rule
neigh_modify delay 2 every 1 check yes page 500000 one 50000
######################################################################
# dealing with ideal flying particles: force field=simple_lj

# Non-interacting flying lj molecule (trial deletion)
# real lj particles
pair_coeff  * *         1.  1.  2.5   # solvent + ions
pair_coeff  4*5 4*5     0   0   2.5   # wall atoms
# flying particles
pair_coeff  * 6         0   0   2.5   # flying solvent  non-interacting
pair_coeff  * 7         0   0   2.5   # flying cation   non-interacting
pair_coeff  * 8         0   0   2.5   # flying anion    non-interacting

# flying solvetn or ions
set type 6  charge 0.                       # non-interacting
Setting atom values ...
  0 settings made for charge
set type 7  charge 0.                       # non-interacting
Setting atom values ...
  1 settings made for charge
set type 8  charge 0.                       # non-interacting
Setting atom values ...
  1 settings made for charge
        
run 0 post no # making flying moelcule non-interacting
WARNING: No fixes defined, atoms won't move (../verlet.cpp:55)
PPPM initialization ...
  using 12-bit tables for long-range coulomb (../kspace.cpp:340)
  G vector (1/distance) = 0.80656374
  grid = 36 36 36
  stencil order = 5
  estimated absolute RMS force accuracy = 8.1571722e-05
  estimated relative force accuracy = 8.1571722e-05
  using single precision KISS FFT
  3d grid and FFT values/proc = 4913 2592
Neighbor list info ...
  update every 1 steps, delay 2 steps, check yes
  max neighbors/atom: 50000, page size: 500000
  master list distance cutoff = 3.8
  ghost atom cutoff = 3.8
  binsize = 1.9, bins = 11 11 11
  1 neighbor lists, perpetual/occasional/extra = 1 0 0
  (1) pair lj/cut/coul/long, perpetual
      attributes: half, newton on
      pair build: half/bin/atomonly/newton
      stencil: half/bin/3d
      bin: standard
Per MPI rank memory allocation (min/avg/max) = 5.425 | 5.447 | 5.490 Mbytes
Step Temp Atoms Density TotEng PotEng KinEng E_coul E_vdwl E_long Enthalpy Press 
   10900     0.981923     5202     0.752298 -15784.003332 -23444.477314  7660.473983   -58.040228 -23084.726433  -301.710653 -9020.777163     0.978078 
Loop time of 2.6887e-06 on 27 procs for 0 steps with 5202 atoms

# done post_propagate after NEMD
# selected salt 5013/5121
#The center of bimodal dist. on a positive side=0.800000
set type 7 type 2
Setting atom values ...
  1 settings made for type
set type 8 type 3
Setting atom values ...
  1 settings made for type
run 0 post no # lj type change (reject_delete)
WARNING: No fixes defined, atoms won't move (../verlet.cpp:55)
PPPM initialization ...
  using 12-bit tables for long-range coulomb (../kspace.cpp:340)
  G vector (1/distance) = 0.80656374
  grid = 36 36 36
  stencil order = 5
  estimated absolute RMS force accuracy = 8.1571722e-05
  estimated relative force accuracy = 8.1571722e-05
  using single precision KISS FFT
  3d grid and FFT values/proc = 4913 2592
Per MPI rank memory allocation (min/avg/max) = 5.425 | 5.447 | 5.490 Mbytes
Step Temp Atoms Density TotEng PotEng KinEng E_coul E_vdwl E_long Enthalpy Press 
   10900     0.981923     5202     0.752298 -13936.781993 -21597.255976  7660.473983   -58.040228 -21237.505095  -301.710653   576.264287     2.098835 
Loop time of 2.95752e-06 on 27 procs for 0 steps with 5202 atoms

set atom 5013 charge 1.000000
Setting atom values ...
  1 settings made for charge
set atom 5121 charge -1.000000
Setting atom values ...
  1 settings made for charge
run 0 post no # charge return (reject_delete)
WARNING: No fixes defined, atoms won't move (../verlet.cpp:55)
PPPM initialization ...
  using 12-bit tables for long-range coulomb (../kspace.cpp:340)
  G vector (1/distance) = 0.80673798
  grid = 36 36 36
  stencil order = 5
  estimated absolute RMS force accuracy = 8.2278886e-05
  estimated relative force accuracy = 8.2278886e-05
  using single precision KISS FFT
  3d grid and FFT values/proc = 4913 2592
Per MPI rank memory allocation (min/avg/max) = 5.425 | 5.447 | 5.490 Mbytes
Step Temp Atoms Density TotEng PotEng KinEng E_coul E_vdwl E_long Enthalpy Press 
   10900     0.981923     5202     0.752298 -13940.436905 -21600.910888  7660.473983   -58.017277 -21237.505095  -305.388516   571.389966     2.098659 
Loop time of 2.95519e-06 on 27 procs for 0 steps with 5202 atoms

run 0 post no # return_position back to old
WARNING: No fixes defined, atoms won't move (../verlet.cpp:55)
PPPM initialization ...
  using 12-bit tables for long-range coulomb (../kspace.cpp:340)
  G vector (1/distance) = 0.80673798
  grid = 36 36 36
  stencil order = 5
  estimated absolute RMS force accuracy = 8.2278886e-05
  estimated relative force accuracy = 8.2278886e-05
  using single precision KISS FFT
  3d grid and FFT values/proc = 4913 2592
Per MPI rank memory allocation (min/avg/max) = 5.425 | 5.447 | 5.490 Mbytes
Step Temp Atoms Density TotEng PotEng KinEng E_coul E_vdwl E_long Enthalpy Press 
   10900     0.983209     5202     0.752298 -15803.720738 -23474.228609  7670.507871   -60.386407 -23104.598253  -309.243949 -9016.530879     0.981544 
Loop time of 2.68256e-06 on 27 procs for 0 steps with 5202 atoms

group widom_test         delete
group noneq_run          delete
group noneq_run_rigid    delete
reset_timestep 10800

group   solvent delete
group   water   delete
group   ions    delete
group   wall    delete
group   flying  delete
group   eq_run  delete
        

group   solvent type 1
5000 atoms in group solvent
group   water   empty
0 atoms in group water
group   ions    type 2 3
202 atoms in group ions
group   wall    type 4 5
0 atoms in group wall
group   flying  type 6 7 8
0 atoms in group flying
group   eq_run  union solvent ions flying
5202 atoms in group eq_run
            
######################################################################
pair_style   lj/cut/coul/long 2.500000 3.500000
kspace_style pppm 0.0001

# LJ (neq? False)
# real lj particles
pair_coeff  * *         1.  1.  2.5   # solvent + ions
pair_coeff  4*5 4*5     0   0   2.5   # wall atoms

        
pair_modify  tail no shift yes mix arithmetic # LB mixing rule
neigh_modify delay 2 every 1 check yes page 500000 one 50000
######################################################################
# shake is off; should be a dummy run
timestep 0.005000
thermo 2000
fix  eqmd   eq_run nvt temp 1.000000 1.000000 0.500000
run 0 # (neq? False) MD run
PPPM initialization ...
  using 12-bit tables for long-range coulomb (../kspace.cpp:340)
  G vector (1/distance) = 0.80673798
  grid = 36 36 36
  stencil order = 5
  estimated absolute RMS force accuracy = 8.2278886e-05
  estimated relative force accuracy = 8.2278886e-05
  using single precision KISS FFT
  3d grid and FFT values/proc = 4913 2592
Per MPI rank memory allocation (min/avg/max) = 5.425 | 5.447 | 5.490 Mbytes
Step Temp Atoms Density TotEng PotEng KinEng E_coul E_vdwl E_long Enthalpy Press 
   10800     0.983209     5202     0.752298 -15803.720738 -23474.228609  7670.507871   -60.386407 -23104.598253  -309.243949 -9016.530879     0.981544 
Loop time of 4.11152e-06 on 27 procs for 0 steps with 5202 atoms

109.0% CPU use with 27 MPI tasks x no OpenMP threads

MPI task timing breakdown:
Section |  min time  |  avg time  |  max time  |%varavg| %total
---------------------------------------------------------------
Pair    | 0          | 0          | 0          |   0.0 |  0.00
Kspace  | 0          | 0          | 0          |   0.0 |  0.00
Neigh   | 0          | 0          | 0          |   0.0 |  0.00
Comm    | 0          | 0          | 0          |   0.0 |  0.00
Output  | 0          | 0          | 0          |   0.0 |  0.00
Modify  | 0          | 0          | 0          |   0.0 |  0.00
Other   |            | 4.112e-06  |            |       |100.00

Nlocal:        192.667 ave         205 max         181 min
Histogram: 2 1 2 5 5 4 3 2 2 1
Nghost:        1853.52 ave        1887 max        1819 min
Histogram: 1 1 3 1 9 2 4 4 0 2
Neighs:        16521.7 ave       17767 max       14964 min
Histogram: 2 0 2 3 5 5 2 2 3 3

Total # of neighbors = 446087
Ave neighs/atom = 85.752980
Neighbor list builds = 0
Dangerous builds = 0
unfix    eqmd
#chosen_cation deletion_move 8.389965 -0.427729 -4.858829 # select_molecule
#chosen_anion deletion_move 9.514246 -1.951286 -4.038348 # select_molecule
# selected_velocity_salt 5043 cation vel -0.291419 0.785339 0.522370
# selected_velocity_salt 5118 anion vel 1.060454 -1.825698 -1.100742
group widom_test id  5043 5118 # select_molecule
2 atoms in group widom_test
set atom 5043 type 7
Setting atom values ...
  1 settings made for type
set atom 5118 type 8
Setting atom values ...
  1 settings made for type
run 0 post no # done selecting a flying molecule
WARNING: No fixes defined, atoms won't move (../verlet.cpp:55)
PPPM initialization ...
  using 12-bit tables for long-range coulomb (../kspace.cpp:340)
  G vector (1/distance) = 0.80673798
  grid = 36 36 36
  stencil order = 5
  estimated absolute RMS force accuracy = 8.2278886e-05
  estimated relative force accuracy = 8.2278886e-05
  using single precision KISS FFT
  3d grid and FFT values/proc = 4913 2592
Per MPI rank memory allocation (min/avg/max) = 5.425 | 5.447 | 5.490 Mbytes
Step Temp Atoms Density TotEng PotEng KinEng E_coul E_vdwl E_long Enthalpy Press 
   10800     0.983209     5202     0.752298 -15803.720738 -23474.228609  7670.507871   -60.386407 -23104.598253  -309.243949 -9016.530879     0.981544 
Loop time of 2.5713e-06 on 27 procs for 0 steps with 5202 atoms

group noneq_run_rigid    intersect   all         water               # select_salt no selection
0 atoms in group noneq_run_rigid
group noneq_run_pre      subtract    all         noneq_run_rigid     # select_salt no selection
5202 atoms in group noneq_run_pre
group noneq_run          subtract    noneq_run_pre   widom_test      # select_salt no selection
5200 atoms in group noneq_run
group noneq_run_pre      delete
run 0 post no # mom rev random number
WARNING: No fixes defined, atoms won't move (../verlet.cpp:55)
PPPM initialization ...
  using 12-bit tables for long-range coulomb (../kspace.cpp:340)
  G vector (1/distance) = 0.80673798
  grid = 36 36 36
  stencil order = 5
  estimated absolute RMS force accuracy = 8.2278886e-05
  estimated relative force accuracy = 8.2278886e-05
  using single precision KISS FFT
  3d grid and FFT values/proc = 4913 2592
Per MPI rank memory allocation (min/avg/max) = 5.425 | 5.447 | 5.490 Mbytes
Step Temp Atoms Density TotEng PotEng KinEng E_coul E_vdwl E_long Enthalpy Press 
   10800     0.983209     5202     0.752298 -15803.720738 -23474.228609  7670.507871   -60.386407 -23104.598253  -309.243949 -9016.530879     0.981544 
Loop time of 3.232e-06 on 27 procs for 0 steps with 5202 atoms

######################################################################
pair_style   lj/cut/coul/long/neq 2.500000 3.500000 10800 100 1.000000 5 0 0 1.000000 1.000000 11 1.000000
kspace_style pppm 0.0001

# LJ (neq? True)
# real lj particles
pair_coeff  * *         1.  1.  2.5   # solvent + ions
pair_coeff  4*5 4*5     0   0   2.5   # wall atoms

        
pair_modify  tail no shift yes mix arithmetic # LB mixing rule
neigh_modify delay 2 every 1 check yes page 500000 one 50000
######################################################################
timestep 0.010000
fix  eqmd  noneq_run           nve                 # nve for non-rigid
run 100 # (neq? True) MD run
PPPM initialization ...
  using 12-bit tables for long-range coulomb (../kspace.cpp:340)
  G vector (1/distance) = 0.80673798
  grid = 36 36 36
  stencil order = 5
  estimated absolute RMS force accuracy = 8.2278886e-05
  estimated relative force accuracy = 8.2278886e-05
  using single precision KISS FFT
  3d grid and FFT values/proc = 4913 2592
Neighbor list info ...
  update every 1 steps, delay 2 steps, check yes
  max neighbors/atom: 50000, page size: 500000
  master list distance cutoff = 3.8
  ghost atom cutoff = 3.8
  binsize = 1.9, bins = 11 11 11
  1 neighbor lists, perpetual/occasional/extra = 1 0 0
  (1) pair lj/cut/coul/long/neq, perpetual
      attributes: half, newton on
      pair build: half/bin/atomonly/newton
      stencil: half/bin/3d
      bin: standard
Per MPI rank memory allocation (min/avg/max) = 5.425 | 5.447 | 5.490 Mbytes
Step Temp Atoms Density TotEng PotEng KinEng E_coul E_vdwl E_long Enthalpy Press 
   10800     0.983209     5202     0.752298 -15803.720738 -23474.228609  7670.507871   -60.386407 -23104.598253  -309.243949 -9016.530879     0.981544 
   10900     0.976638     5202     0.752298 -15799.954675 -23419.194399  7619.239725   -58.767847 -23053.817499  -306.609054 -8751.495915     1.019328 
Loop time of 0.308917 on 27 procs for 100 steps with 5202 atoms

Performance: 279686.352 tau/day, 323.711 timesteps/s
92.4% CPU use with 27 MPI tasks x no OpenMP threads

MPI task timing breakdown:
Section |  min time  |  avg time  |  max time  |%varavg| %total
---------------------------------------------------------------
Pair    | 0.060817   | 0.095099   | 0.1104     |   5.1 | 30.78
Kspace  | 0.157      | 0.17437    | 0.21112    |   4.0 | 56.45
Neigh   | 0.015292   | 0.021874   | 0.025184   |   2.0 |  7.08
Comm    | 0.013766   | 0.015487   | 0.01965    |   1.5 |  5.01
Output  | 5.3593e-05 | 6.0424e-05 | 8.2897e-05 |   0.0 |  0.02
Modify  | 0.00036671 | 0.00053737 | 0.00067478 |   0.0 |  0.17
Other   |            | 0.001486   |            |       |  0.48

Nlocal:        192.667 ave         204 max         185 min
Histogram: 2 3 4 6 4 2 3 0 1 2
Nghost:        1844.19 ave        1867 max        1823 min
Histogram: 1 1 2 5 5 5 4 3 0 1
Neighs:        16517.8 ave       18009 max       15568 min
Histogram: 3 4 3 7 3 1 3 0 1 2

Total # of neighbors = 445980
Ave neighs/atom = 85.732411
Neighbor list builds = 26
Dangerous builds = 0
unfix    eqmd

group   solvent type 1
5000 atoms in group solvent
group   water   empty
0 atoms in group water
group   ions    type 2 3
202 atoms in group ions
group   wall    type 4 5
0 atoms in group wall
group   flying  type 6 7 8
2 atoms in group flying
group   eq_run  union solvent ions flying
5202 atoms in group eq_run
            
######################################################################
pair_style   lj/cut/coul/long 2.500000 3.500000
kspace_style pppm 0.0001

# LJ (neq? False)
# real lj particles
pair_coeff  * *         1.  1.  2.5   # solvent + ions
pair_coeff  4*5 4*5     0   0   2.5   # wall atoms

        
pair_modify  tail no shift yes mix arithmetic # LB mixing rule
neigh_modify delay 2 every 1 check yes page 500000 one 50000
######################################################################
# dealing with ideal flying particles: force field=simple_lj

# Non-interacting flying lj molecule (trial deletion)
# real lj particles
pair_coeff  * *         1.  1.  2.5   # solvent + ions
pair_coeff  4*5 4*5     0   0   2.5   # wall atoms
# flying particles
pair_coeff  * 6         0   0   2.5   # flying solvent  non-interacting
pair_coeff  * 7         0   0   2.5   # flying cation   non-interacting
pair_coeff  * 8         0   0   2.5   # flying anion    non-interacting

# flying solvetn or ions
set type 6  charge 0.                       # non-interacting
Setting atom values ...
  0 settings made for charge
set type 7  charge 0.                       # non-interacting
Setting atom values ...
  1 settings made for charge
set type 8  charge 0.                       # non-interacting
Setting atom values ...
  1 settings made for charge
        
run 0 post no # making flying moelcule non-interacting
WARNING: No fixes defined, atoms won't move (../verlet.cpp:55)
PPPM initialization ...
  using 12-bit tables for long-range coulomb (../kspace.cpp:340)
  G vector (1/distance) = 0.80656374
  grid = 36 36 36
  stencil order = 5
  estimated absolute RMS force accuracy = 8.1571722e-05
  estimated relative force accuracy = 8.1571722e-05
  using single precision KISS FFT
  3d grid and FFT values/proc = 4913 2592
Neighbor list info ...
  update every 1 steps, delay 2 steps, check yes
  max neighbors/atom: 50000, page size: 500000
  master list distance cutoff = 3.8
  ghost atom cutoff = 3.8
  binsize = 1.9, bins = 11 11 11
  1 neighbor lists, perpetual/occasional/extra = 1 0 0
  (1) pair lj/cut/coul/long, perpetual
      attributes: half, newton on
      pair build: half/bin/atomonly/newton
      stencil: half/bin/3d
      bin: standard
Per MPI rank memory allocation (min/avg/max) = 5.425 | 5.447 | 5.490 Mbytes
Step Temp Atoms Density TotEng PotEng KinEng E_coul E_vdwl E_long Enthalpy Press 
   10900     0.976638     5202     0.752298 -15785.394149 -23404.633873  7619.239725   -58.562560 -23043.759618  -302.311696 -8726.233911     1.020876 
Loop time of 2.49119e-06 on 27 procs for 0 steps with 5202 atoms

# done post_propagate after NEMD
# selected salt 5043/5118
#The center of bimodal dist. on a positive side=0.800000
set type 7 type 2
Setting atom values ...
  1 settings made for type
set type 8 type 3
Setting atom values ...
  1 settings made for type
run 0 post no # lj type change (reject_delete)
WARNING: No fixes defined, atoms won't move (../verlet.cpp:55)
PPPM initialization ...
  using 12-bit tables for long-range coulomb (../kspace.cpp:340)
  G vector (1/distance) = 0.80656374
  grid = 36 36 36
  stencil order = 5
  estimated absolute RMS force accuracy = 8.1571722e-05
  estimated relative force accuracy = 8.1571722e-05
  using single precision KISS FFT
  3d grid and FFT values/proc = 4913 2592
Per MPI rank memory allocation (min/avg/max) = 5.425 | 5.447 | 5.490 Mbytes
Step Temp Atoms Density TotEng PotEng KinEng E_coul E_vdwl E_long Enthalpy Press 
   10900     0.976638     5202     0.752298 -12540.046253 -20159.285977  7619.239725   -58.562560 -19798.411722  -302.311696  8065.896873     2.979973 
Loop time of 3.262e-06 on 27 procs for 0 steps with 5202 atoms

set atom 5043 charge 1.000000
Setting atom values ...
  1 settings made for charge
set atom 5118 charge -1.000000
Setting atom values ...
  1 settings made for charge
run 0 post no # charge return (reject_delete)
WARNING: No fixes defined, atoms won't move (../verlet.cpp:55)
PPPM initialization ...
  using 12-bit tables for long-range coulomb (../kspace.cpp:340)
  G vector (1/distance) = 0.80673798
  grid = 36 36 36
  stencil order = 5
  estimated absolute RMS force accuracy = 8.2278886e-05
  estimated relative force accuracy = 8.2278886e-05
  using single precision KISS FFT
  3d grid and FFT values/proc = 4913 2592
Per MPI rank memory allocation (min/avg/max) = 5.425 | 5.447 | 5.490 Mbytes
Step Temp Atoms Density TotEng PotEng KinEng E_coul E_vdwl E_long Enthalpy Press 
   10900     0.976638     5202     0.752298 -12547.024651 -20166.264375  7619.239725   -61.243599 -19798.411722  -306.609054  8056.591411     2.979636 
Loop time of 2.53344e-06 on 27 procs for 0 steps with 5202 atoms

run 0 post no # return_position back to old
WARNING: No fixes defined, atoms won't move (../verlet.cpp:55)
PPPM initialization ...
  using 12-bit tables for long-range coulomb (../kspace.cpp:340)
  G vector (1/distance) = 0.80673798
  grid = 36 36 36
  stencil order = 5
  estimated absolute RMS force accuracy = 8.2278886e-05
  estimated relative force accuracy = 8.2278886e-05
  using single precision KISS FFT
  3d grid and FFT values/proc = 4913 2592
Per MPI rank memory allocation (min/avg/max) = 5.425 | 5.447 | 5.490 Mbytes
Step Temp Atoms Density TotEng PotEng KinEng E_coul E_vdwl E_long Enthalpy Press 
   10900     0.983209     5202     0.752298 -15803.720738 -23474.228609  7670.507871   -60.386407 -23104.598253  -309.243949 -9016.530879     0.981544 
Loop time of 2.49104e-06 on 27 procs for 0 steps with 5202 atoms

group widom_test         delete
group noneq_run          delete
group noneq_run_rigid    delete
reset_timestep 10800

group   solvent delete
group   water   delete
group   ions    delete
group   wall    delete
group   flying  delete
group   eq_run  delete
        

group   solvent type 1
5000 atoms in group solvent
group   water   empty
0 atoms in group water
group   ions    type 2 3
202 atoms in group ions
group   wall    type 4 5
0 atoms in group wall
group   flying  type 6 7 8
0 atoms in group flying
group   eq_run  union solvent ions flying
5202 atoms in group eq_run
            
######################################################################
pair_style   lj/cut/coul/long 2.500000 3.500000
kspace_style pppm 0.0001

# LJ (neq? False)
# real lj particles
pair_coeff  * *         1.  1.  2.5   # solvent + ions
pair_coeff  4*5 4*5     0   0   2.5   # wall atoms

        
pair_modify  tail no shift yes mix arithmetic # LB mixing rule
neigh_modify delay 2 every 1 check yes page 500000 one 50000
######################################################################
# shake is off; should be a dummy run
timestep 0.005000
thermo 2000
fix  eqmd   eq_run nvt temp 1.000000 1.000000 0.500000
run 0 # (neq? False) MD run
PPPM initialization ...
  using 12-bit tables for long-range coulomb (../kspace.cpp:340)
  G vector (1/distance) = 0.80673798
  grid = 36 36 36
  stencil order = 5
  estimated absolute RMS force accuracy = 8.2278886e-05
  estimated relative force accuracy = 8.2278886e-05
  using single precision KISS FFT
  3d grid and FFT values/proc = 4913 2592
Per MPI rank memory allocation (min/avg/max) = 5.425 | 5.447 | 5.490 Mbytes
Step Temp Atoms Density TotEng PotEng KinEng E_coul E_vdwl E_long Enthalpy Press 
   10800     0.983209     5202     0.752298 -15803.720738 -23474.228609  7670.507871   -60.386407 -23104.598253  -309.243949 -9016.530879     0.981544 
Loop time of 2.85448e-06 on 27 procs for 0 steps with 5202 atoms

125.9% CPU use with 27 MPI tasks x no OpenMP threads

MPI task timing breakdown:
Section |  min time  |  avg time  |  max time  |%varavg| %total
---------------------------------------------------------------
Pair    | 0          | 0          | 0          |   0.0 |  0.00
Kspace  | 0          | 0          | 0          |   0.0 |  0.00
Neigh   | 0          | 0          | 0          |   0.0 |  0.00
Comm    | 0          | 0          | 0          |   0.0 |  0.00
Output  | 0          | 0          | 0          |   0.0 |  0.00
Modify  | 0          | 0          | 0          |   0.0 |  0.00
Other   |            | 2.854e-06  |            |       |100.00

Nlocal:        192.667 ave         205 max         181 min
Histogram: 2 1 2 5 5 4 3 2 2 1
Nghost:        1853.52 ave        1887 max        1819 min
Histogram: 1 1 3 1 9 2 4 4 0 2
Neighs:        16521.7 ave       17767 max       14964 min
Histogram: 2 0 2 3 5 5 2 2 3 3

Total # of neighbors = 446087
Ave neighs/atom = 85.752980
Neighbor list builds = 0
Dangerous builds = 0
unfix    eqmd
#chosen_cation deletion_move 7.568864 5.848707 -7.132740 # select_molecule
#chosen_anion deletion_move 6.794354 7.555146 -6.242693 # select_molecule
# selected_velocity_salt 5004 cation vel 0.448031 0.295127 -0.075829
# selected_velocity_salt 5128 anion vel -0.328949 2.791280 -0.960165
group widom_test id  5004 5128 # select_molecule
2 atoms in group widom_test
set atom 5004 type 7
Setting atom values ...
  1 settings made for type
set atom 5128 type 8
Setting atom values ...
  1 settings made for type
run 0 post no # done selecting a flying molecule
WARNING: No fixes defined, atoms won't move (../verlet.cpp:55)
PPPM initialization ...
  using 12-bit tables for long-range coulomb (../kspace.cpp:340)
  G vector (1/distance) = 0.80673798
  grid = 36 36 36
  stencil order = 5
  estimated absolute RMS force accuracy = 8.2278886e-05
  estimated relative force accuracy = 8.2278886e-05
  using single precision KISS FFT
  3d grid and FFT values/proc = 4913 2592
Per MPI rank memory allocation (min/avg/max) = 5.425 | 5.447 | 5.490 Mbytes
Step Temp Atoms Density TotEng PotEng KinEng E_coul E_vdwl E_long Enthalpy Press 
   10800     0.983209     5202     0.752298 -15803.720738 -23474.228609  7670.507871   -60.386407 -23104.598253  -309.243949 -9016.530879     0.981544 
Loop time of 2.98404e-06 on 27 procs for 0 steps with 5202 atoms

group noneq_run_rigid    intersect   all         water               # select_salt no selection
0 atoms in group noneq_run_rigid
group noneq_run_pre      subtract    all         noneq_run_rigid     # select_salt no selection
5202 atoms in group noneq_run_pre
group noneq_run          subtract    noneq_run_pre   widom_test      # select_salt no selection
5200 atoms in group noneq_run
group noneq_run_pre      delete
run 0 post no # mom rev random number
WARNING: No fixes defined, atoms won't move (../verlet.cpp:55)
PPPM initialization ...
  using 12-bit tables for long-range coulomb (../kspace.cpp:340)
  G vector (1/distance) = 0.80673798
  grid = 36 36 36
  stencil order = 5
  estimated absolute RMS force accuracy = 8.2278886e-05
  estimated relative force accuracy = 8.2278886e-05
  using single precision KISS FFT
  3d grid and FFT values/proc = 4913 2592
Per MPI rank memory allocation (min/avg/max) = 5.425 | 5.447 | 5.490 Mbytes
Step Temp Atoms Density TotEng PotEng KinEng E_coul E_vdwl E_long Enthalpy Press 
   10800     0.983209     5202     0.752298 -15803.720738 -23474.228609  7670.507871   -60.386407 -23104.598253  -309.243949 -9016.530879     0.981544 
Loop time of 2.61811e-06 on 27 procs for 0 steps with 5202 atoms

######################################################################
pair_style   lj/cut/coul/long/neq 2.500000 3.500000 10800 100 1.000000 5 0 0 1.000000 1.000000 11 1.000000
kspace_style pppm 0.0001

# LJ (neq? True)
# real lj particles
pair_coeff  * *         1.  1.  2.5   # solvent + ions
pair_coeff  4*5 4*5     0   0   2.5   # wall atoms

        
pair_modify  tail no shift yes mix arithmetic # LB mixing rule
neigh_modify delay 2 every 1 check yes page 500000 one 50000
######################################################################
timestep 0.010000
fix  eqmd  noneq_run           nve                 # nve for non-rigid
run 100 # (neq? True) MD run
PPPM initialization ...
  using 12-bit tables for long-range coulomb (../kspace.cpp:340)
  G vector (1/distance) = 0.80673798
  grid = 36 36 36
  stencil order = 5
  estimated absolute RMS force accuracy = 8.2278886e-05
  estimated relative force accuracy = 8.2278886e-05
  using single precision KISS FFT
  3d grid and FFT values/proc = 4913 2592
Neighbor list info ...
  update every 1 steps, delay 2 steps, check yes
  max neighbors/atom: 50000, page size: 500000
  master list distance cutoff = 3.8
  ghost atom cutoff = 3.8
  binsize = 1.9, bins = 11 11 11
  1 neighbor lists, perpetual/occasional/extra = 1 0 0
  (1) pair lj/cut/coul/long/neq, perpetual
      attributes: half, newton on
      pair build: half/bin/atomonly/newton
      stencil: half/bin/3d
      bin: standard
Per MPI rank memory allocation (min/avg/max) = 5.425 | 5.447 | 5.490 Mbytes
Step Temp Atoms Density TotEng PotEng KinEng E_coul E_vdwl E_long Enthalpy Press 
   10800     0.983209     5202     0.752298 -15803.720738 -23474.228609  7670.507871   -60.386407 -23104.598253  -309.243949 -9016.530879     0.981544 
   10900     0.980948     5202     0.752298 -15798.890422 -23451.759117  7652.868695   -56.884648 -23089.297750  -305.576720 -8996.739496     0.983708 
Loop time of 0.313138 on 27 procs for 100 steps with 5202 atoms

Performance: 275917.111 tau/day, 319.349 timesteps/s
93.0% CPU use with 27 MPI tasks x no OpenMP threads

MPI task timing breakdown:
Section |  min time  |  avg time  |  max time  |%varavg| %total
---------------------------------------------------------------
Pair    | 0.060879   | 0.095325   | 0.11114    |   5.2 | 30.44
Kspace  | 0.15861    | 0.17682    | 0.21349    |   4.0 | 56.47
Neigh   | 0.015355   | 0.021926   | 0.025544   |   2.0 |  7.00
Comm    | 0.014904   | 0.016692   | 0.020887   |   1.5 |  5.33
Output  | 5.4464e-05 | 6.3997e-05 | 0.00019233 |   0.0 |  0.02
Modify  | 0.00036109 | 0.00052361 | 0.00061836 |   0.0 |  0.17
Other   |            | 0.001784   |            |       |  0.57

Nlocal:        192.667 ave         205 max         181 min
Histogram: 1 1 4 2 8 3 3 2 1 2
Nghost:        1846.67 ave        1869 max        1821 min
Histogram: 2 2 2 2 3 4 4 3 4 1
Neighs:        16519.0 ave       17884 max       15026 min
Histogram: 1 1 1 5 4 9 0 3 1 2

Total # of neighbors = 446013
Ave neighs/atom = 85.738754
Neighbor list builds = 26
Dangerous builds = 0
unfix    eqmd

group   solvent type 1
5000 atoms in group solvent
group   water   empty
0 atoms in group water
group   ions    type 2 3
202 atoms in group ions
group   wall    type 4 5
0 atoms in group wall
group   flying  type 6 7 8
2 atoms in group flying
group   eq_run  union solvent ions flying
5202 atoms in group eq_run
            
######################################################################
pair_style   lj/cut/coul/long 2.500000 3.500000
kspace_style pppm 0.0001

# LJ (neq? False)
# real lj particles
pair_coeff  * *         1.  1.  2.5   # solvent + ions
pair_coeff  4*5 4*5     0   0   2.5   # wall atoms

        
pair_modify  tail no shift yes mix arithmetic # LB mixing rule
neigh_modify delay 2 every 1 check yes page 500000 one 50000
######################################################################
# dealing with ideal flying particles: force field=simple_lj

# Non-interacting flying lj molecule (trial deletion)
# real lj particles
pair_coeff  * *         1.  1.  2.5   # solvent + ions
pair_coeff  4*5 4*5     0   0   2.5   # wall atoms
# flying particles
pair_coeff  * 6         0   0   2.5   # flying solvent  non-interacting
pair_coeff  * 7         0   0   2.5   # flying cation   non-interacting
pair_coeff  * 8         0   0   2.5   # flying anion    non-interacting

# flying solvetn or ions
set type 6  charge 0.                       # non-interacting
Setting atom values ...
  0 settings made for charge
set type 7  charge 0.                       # non-interacting
Setting atom values ...
  1 settings made for charge
set type 8  charge 0.                       # non-interacting
Setting atom values ...
  1 settings made for charge
        
run 0 post no # making flying moelcule non-interacting
WARNING: No fixes defined, atoms won't move (../verlet.cpp:55)
PPPM initialization ...
  using 12-bit tables for long-range coulomb (../kspace.cpp:340)
  G vector (1/distance) = 0.80656374
  grid = 36 36 36
  stencil order = 5
  estimated absolute RMS force accuracy = 8.1571722e-05
  estimated relative force accuracy = 8.1571722e-05
  using single precision KISS FFT
  3d grid and FFT values/proc = 4913 2592
Neighbor list info ...
  update every 1 steps, delay 2 steps, check yes
  max neighbors/atom: 50000, page size: 500000
  master list distance cutoff = 3.8
  ghost atom cutoff = 3.8
  binsize = 1.9, bins = 11 11 11
  1 neighbor lists, perpetual/occasional/extra = 1 0 0
  (1) pair lj/cut/coul/long, perpetual
      attributes: half, newton on
      pair build: half/bin/atomonly/newton
      stencil: half/bin/3d
      bin: standard
Per MPI rank memory allocation (min/avg/max) = 5.425 | 5.447 | 5.490 Mbytes
Step Temp Atoms Density TotEng PotEng KinEng E_coul E_vdwl E_long Enthalpy Press 
   10900     0.980948     5202     0.752298 -15786.050574 -23438.919269  7652.868695   -56.888801 -23079.878800  -302.151667 -8972.839455     0.985307 
Loop time of 2.812e-06 on 27 procs for 0 steps with 5202 atoms

# done post_propagate after NEMD
# selected salt 5004/5128
#The center of bimodal dist. on a positive side=0.800000
set type 7 type 2
Setting atom values ...
  1 settings made for type
set type 8 type 3
Setting atom values ...
  1 settings made for type
run 0 post no # lj type change (reject_delete)
WARNING: No fixes defined, atoms won't move (../verlet.cpp:55)
PPPM initialization ...
  using 12-bit tables for long-range coulomb (../kspace.cpp:340)
  G vector (1/distance) = 0.80656374
  grid = 36 36 36
  stencil order = 5
  estimated absolute RMS force accuracy = 8.1571722e-05
  estimated relative force accuracy = 8.1571722e-05
  using single precision KISS FFT
  3d grid and FFT values/proc = 4913 2592
Per MPI rank memory allocation (min/avg/max) = 5.425 | 5.447 | 5.490 Mbytes
Step Temp Atoms Density TotEng PotEng KinEng E_coul E_vdwl E_long Enthalpy Press 
   10900     0.980948     5202     0.752298 -14938.770069 -22591.638764  7652.868695   -56.888801 -22232.598295  -302.151667 -4388.512780     1.525748 
Loop time of 2.64459e-06 on 27 procs for 0 steps with 5202 atoms

set atom 5004 charge 1.000000
Setting atom values ...
  1 settings made for charge
set atom 5128 charge -1.000000
Setting atom values ...
  1 settings made for charge
run 0 post no # charge return (reject_delete)
WARNING: No fixes defined, atoms won't move (../verlet.cpp:55)
PPPM initialization ...
  using 12-bit tables for long-range coulomb (../kspace.cpp:340)
  G vector (1/distance) = 0.80673798
  grid = 36 36 36
  stencil order = 5
  estimated absolute RMS force accuracy = 8.2278886e-05
  estimated relative force accuracy = 8.2278886e-05
  using single precision KISS FFT
  3d grid and FFT values/proc = 4913 2592
Per MPI rank memory allocation (min/avg/max) = 5.425 | 5.447 | 5.490 Mbytes
Step Temp Atoms Density TotEng PotEng KinEng E_coul E_vdwl E_long Enthalpy Press 
   10900     0.980948     5202     0.752298 -14942.341031 -22595.209725  7652.868695   -57.034710 -22232.598295  -305.576720 -4393.273664     1.525576 
Loop time of 2.74026e-06 on 27 procs for 0 steps with 5202 atoms

run 0 post no # return_position back to old
WARNING: No fixes defined, atoms won't move (../verlet.cpp:55)
PPPM initialization ...
  using 12-bit tables for long-range coulomb (../kspace.cpp:340)
  G vector (1/distance) = 0.80673798
  grid = 36 36 36
  stencil order = 5
  estimated absolute RMS force accuracy = 8.2278886e-05
  estimated relative force accuracy = 8.2278886e-05
  using single precision KISS FFT
  3d grid and FFT values/proc = 4913 2592
Per MPI rank memory allocation (min/avg/max) = 5.425 | 5.447 | 5.490 Mbytes
Step Temp Atoms Density TotEng PotEng KinEng E_coul E_vdwl E_long Enthalpy Press 
   10900     0.983209     5202     0.752298 -15803.720738 -23474.228609  7670.507871   -60.386407 -23104.598253  -309.243949 -9016.530879     0.981544 
Loop time of 2.68778e-06 on 27 procs for 0 steps with 5202 atoms

group widom_test         delete
group noneq_run          delete
group noneq_run_rigid    delete
reset_timestep 10800

group   solvent delete
group   water   delete
group   ions    delete
group   wall    delete
group   flying  delete
group   eq_run  delete
        

group   solvent type 1
5000 atoms in group solvent
group   water   empty
0 atoms in group water
group   ions    type 2 3
202 atoms in group ions
group   wall    type 4 5
0 atoms in group wall
group   flying  type 6 7 8
0 atoms in group flying
group   eq_run  union solvent ions flying
5202 atoms in group eq_run
            
######################################################################
pair_style   lj/cut/coul/long 2.500000 3.500000
kspace_style pppm 0.0001

# LJ (neq? False)
# real lj particles
pair_coeff  * *         1.  1.  2.5   # solvent + ions
pair_coeff  4*5 4*5     0   0   2.5   # wall atoms

        
pair_modify  tail no shift yes mix arithmetic # LB mixing rule
neigh_modify delay 2 every 1 check yes page 500000 one 50000
######################################################################
# shake is off; should be a dummy run
timestep 0.005000
thermo 2000
fix  eqmd   eq_run nvt temp 1.000000 1.000000 0.500000
run 0 # (neq? False) MD run
PPPM initialization ...
  using 12-bit tables for long-range coulomb (../kspace.cpp:340)
  G vector (1/distance) = 0.80673798
  grid = 36 36 36
  stencil order = 5
  estimated absolute RMS force accuracy = 8.2278886e-05
  estimated relative force accuracy = 8.2278886e-05
  using single precision KISS FFT
  3d grid and FFT values/proc = 4913 2592
Per MPI rank memory allocation (min/avg/max) = 5.425 | 5.447 | 5.490 Mbytes
Step Temp Atoms Density TotEng PotEng KinEng E_coul E_vdwl E_long Enthalpy Press 
   10800     0.983209     5202     0.752298 -15803.720738 -23474.228609  7670.507871   -60.386407 -23104.598253  -309.243949 -9016.530879     0.981544 
Loop time of 6.04074e-06 on 27 procs for 0 steps with 5202 atoms

4.3% CPU use with 27 MPI tasks x no OpenMP threads

MPI task timing breakdown:
Section |  min time  |  avg time  |  max time  |%varavg| %total
---------------------------------------------------------------
Pair    | 0          | 0          | 0          |   0.0 |  0.00
Kspace  | 0          | 0          | 0          |   0.0 |  0.00
Neigh   | 0          | 0          | 0          |   0.0 |  0.00
Comm    | 0          | 0          | 0          |   0.0 |  0.00
Output  | 0          | 0          | 0          |   0.0 |  0.00
Modify  | 0          | 0          | 0          |   0.0 |  0.00
Other   |            | 6.041e-06  |            |       |100.00

Nlocal:        192.667 ave         205 max         181 min
Histogram: 2 1 2 5 5 4 3 2 2 1
Nghost:        1853.52 ave        1887 max        1819 min
Histogram: 1 1 3 1 9 2 4 4 0 2
Neighs:        16521.7 ave       17767 max       14964 min
Histogram: 2 0 2 3 5 5 2 2 3 3

Total # of neighbors = 446087
Ave neighs/atom = 85.752980
Neighbor list builds = 0
Dangerous builds = 0
unfix    eqmd
#chosen_cation deletion_move 2.650425 -0.548301 5.831316 # select_molecule
#chosen_anion deletion_move 1.229864 -1.605047 4.512627 # select_molecule
# selected_velocity_salt 5031 cation vel -0.391848 0.235747 0.032719
# selected_velocity_salt 5164 anion vel 0.140753 0.043084 -2.694801
group widom_test id  5031 5164 # select_molecule
2 atoms in group widom_test
set atom 5031 type 7
Setting atom values ...
  1 settings made for type
set atom 5164 type 8
Setting atom values ...
  1 settings made for type
run 0 post no # done selecting a flying molecule
WARNING: No fixes defined, atoms won't move (../verlet.cpp:55)
PPPM initialization ...
  using 12-bit tables for long-range coulomb (../kspace.cpp:340)
  G vector (1/distance) = 0.80673798
  grid = 36 36 36
  stencil order = 5
  estimated absolute RMS force accuracy = 8.2278886e-05
  estimated relative force accuracy = 8.2278886e-05
  using single precision KISS FFT
  3d grid and FFT values/proc = 4913 2592
Per MPI rank memory allocation (min/avg/max) = 5.425 | 5.447 | 5.490 Mbytes
Step Temp Atoms Density TotEng PotEng KinEng E_coul E_vdwl E_long Enthalpy Press 
   10800     0.983209     5202     0.752298 -15803.720738 -23474.228609  7670.507871   -60.386407 -23104.598253  -309.243949 -9016.530879     0.981544 
Loop time of 3.61511e-06 on 27 procs for 0 steps with 5202 atoms

group noneq_run_rigid    intersect   all         water               # select_salt no selection
0 atoms in group noneq_run_rigid
group noneq_run_pre      subtract    all         noneq_run_rigid     # select_salt no selection
5202 atoms in group noneq_run_pre
group noneq_run          subtract    noneq_run_pre   widom_test      # select_salt no selection
5200 atoms in group noneq_run
group noneq_run_pre      delete
run 0 post no # mom rev random number
WARNING: No fixes defined, atoms won't move (../verlet.cpp:55)
PPPM initialization ...
  using 12-bit tables for long-range coulomb (../kspace.cpp:340)
  G vector (1/distance) = 0.80673798
  grid = 36 36 36
  stencil order = 5
  estimated absolute RMS force accuracy = 8.2278886e-05
  estimated relative force accuracy = 8.2278886e-05
  using single precision KISS FFT
  3d grid and FFT values/proc = 4913 2592
Per MPI rank memory allocation (min/avg/max) = 5.425 | 5.447 | 5.490 Mbytes
Step Temp Atoms Density TotEng PotEng KinEng E_coul E_vdwl E_long Enthalpy Press 
   10800     0.983209     5202     0.752298 -15803.720738 -23474.228609  7670.507871   -60.386407 -23104.598253  -309.243949 -9016.530879     0.981544 
Loop time of 3.37974e-06 on 27 procs for 0 steps with 5202 atoms

######################################################################
pair_style   lj/cut/coul/long/neq 2.500000 3.500000 10800 100 1.000000 5 0 0 1.000000 1.000000 11 1.000000
kspace_style pppm 0.0001

# LJ (neq? True)
# real lj particles
pair_coeff  * *         1.  1.  2.5   # solvent + ions
pair_coeff  4*5 4*5     0   0   2.5   # wall atoms

        
pair_modify  tail no shift yes mix arithmetic # LB mixing rule
neigh_modify delay 2 every 1 check yes page 500000 one 50000
######################################################################
timestep 0.010000
fix  eqmd  noneq_run           nve                 # nve for non-rigid
run 100 # (neq? True) MD run
PPPM initialization ...
  using 12-bit tables for long-range coulomb (../kspace.cpp:340)
  G vector (1/distance) = 0.80673798
  grid = 36 36 36
  stencil order = 5
  estimated absolute RMS force accuracy = 8.2278886e-05
  estimated relative force accuracy = 8.2278886e-05
  using single precision KISS FFT
  3d grid and FFT values/proc = 4913 2592
Neighbor list info ...
  update every 1 steps, delay 2 steps, check yes
  max neighbors/atom: 50000, page size: 500000
  master list distance cutoff = 3.8
  ghost atom cutoff = 3.8
  binsize = 1.9, bins = 11 11 11
  1 neighbor lists, perpetual/occasional/extra = 1 0 0
  (1) pair lj/cut/coul/long/neq, perpetual
      attributes: half, newton on
      pair build: half/bin/atomonly/newton
      stencil: half/bin/3d
      bin: standard
Per MPI rank memory allocation (min/avg/max) = 5.425 | 5.447 | 5.490 Mbytes
Step Temp Atoms Density TotEng PotEng KinEng E_coul E_vdwl E_long Enthalpy Press 
   10800     0.983209     5202     0.752298 -15803.720738 -23474.228609  7670.507871   -60.386407 -23104.598253  -309.243949 -9016.530879     0.981544 
   10900     0.978098     5202     0.752298 -15792.624284 -23423.258590  7630.634305   -57.476714 -23060.688333  -305.093543 -8818.781833     1.008537 
Loop time of 0.309333 on 27 procs for 100 steps with 5202 atoms

Performance: 279310.943 tau/day, 323.277 timesteps/s
93.0% CPU use with 27 MPI tasks x no OpenMP threads

MPI task timing breakdown:
Section |  min time  |  avg time  |  max time  |%varavg| %total
---------------------------------------------------------------
Pair    | 0.060107   | 0.095574   | 0.11308    |   5.2 | 30.90
Kspace  | 0.15579    | 0.17511    | 0.2126     |   4.0 | 56.61
Neigh   | 0.014657   | 0.021056   | 0.02414    |   1.9 |  6.81
Comm    | 0.013625   | 0.015382   | 0.019685   |   1.6 |  4.97
Output  | 5.4901e-05 | 6.6217e-05 | 0.00018643 |   0.0 |  0.02
Modify  | 0.00035643 | 0.00052087 | 0.00061128 |   0.0 |  0.17
Other   |            | 0.001622   |            |       |  0.52

Nlocal:        192.667 ave         203 max         182 min
Histogram: 1 1 6 3 1 6 2 3 1 3
Nghost:        1845.74 ave        1862 max        1826 min
Histogram: 2 1 1 5 3 3 3 4 2 3
Neighs:        16520.0 ave       17852 max       15176 min
Histogram: 1 2 4 4 4 3 3 3 0 3

Total # of neighbors = 446039
Ave neighs/atom = 85.743752
Neighbor list builds = 25
Dangerous builds = 0
unfix    eqmd

group   solvent type 1
5000 atoms in group solvent
group   water   empty
0 atoms in group water
group   ions    type 2 3
202 atoms in group ions
group   wall    type 4 5
0 atoms in group wall
group   flying  type 6 7 8
2 atoms in group flying
group   eq_run  union solvent ions flying
5202 atoms in group eq_run
            
######################################################################
pair_style   lj/cut/coul/long 2.500000 3.500000
kspace_style pppm 0.0001

# LJ (neq? False)
# real lj particles
pair_coeff  * *         1.  1.  2.5   # solvent + ions
pair_coeff  4*5 4*5     0   0   2.5   # wall atoms

        
pair_modify  tail no shift yes mix arithmetic # LB mixing rule
neigh_modify delay 2 every 1 check yes page 500000 one 50000
######################################################################
# dealing with ideal flying particles: force field=simple_lj

# Non-interacting flying lj molecule (trial deletion)
# real lj particles
pair_coeff  * *         1.  1.  2.5   # solvent + ions
pair_coeff  4*5 4*5     0   0   2.5   # wall atoms
# flying particles
pair_coeff  * 6         0   0   2.5   # flying solvent  non-interacting
pair_coeff  * 7         0   0   2.5   # flying cation   non-interacting
pair_coeff  * 8         0   0   2.5   # flying anion    non-interacting

# flying solvetn or ions
set type 6  charge 0.                       # non-interacting
Setting atom values ...
  0 settings made for charge
set type 7  charge 0.                       # non-interacting
Setting atom values ...
  1 settings made for charge
set type 8  charge 0.                       # non-interacting
Setting atom values ...
  1 settings made for charge
        
run 0 post no # making flying moelcule non-interacting
WARNING: No fixes defined, atoms won't move (../verlet.cpp:55)
PPPM initialization ...
  using 12-bit tables for long-range coulomb (../kspace.cpp:340)
  G vector (1/distance) = 0.80656374
  grid = 36 36 36
  stencil order = 5
  estimated absolute RMS force accuracy = 8.1571722e-05
  estimated relative force accuracy = 8.1571722e-05
  using single precision KISS FFT
  3d grid and FFT values/proc = 4913 2592
Neighbor list info ...
  update every 1 steps, delay 2 steps, check yes
  max neighbors/atom: 50000, page size: 500000
  master list distance cutoff = 3.8
  ghost atom cutoff = 3.8
  binsize = 1.9, bins = 11 11 11
  1 neighbor lists, perpetual/occasional/extra = 1 0 0
  (1) pair lj/cut/coul/long, perpetual
      attributes: half, newton on
      pair build: half/bin/atomonly/newton
      stencil: half/bin/3d
      bin: standard
Per MPI rank memory allocation (min/avg/max) = 5.425 | 5.447 | 5.490 Mbytes
Step Temp Atoms Density TotEng PotEng KinEng E_coul E_vdwl E_long Enthalpy Press 
   10900     0.978098     5202     0.752298 -15778.791759 -23409.426064  7630.634305   -57.358882 -23051.409950  -300.657233 -8793.644865     1.010172 
Loop time of 2.9323e-06 on 27 procs for 0 steps with 5202 atoms

# done post_propagate after NEMD
# selected salt 5031/5164
#The center of bimodal dist. on a positive side=0.800000
set type 7 type 2
Setting atom values ...
  1 settings made for type
set type 8 type 3
Setting atom values ...
  1 settings made for type
run 0 post no # lj type change (reject_delete)
WARNING: No fixes defined, atoms won't move (../verlet.cpp:55)
PPPM initialization ...
  using 12-bit tables for long-range coulomb (../kspace.cpp:340)
  G vector (1/distance) = 0.80656374
  grid = 36 36 36
  stencil order = 5
  estimated absolute RMS force accuracy = 8.1571722e-05
  estimated relative force accuracy = 8.1571722e-05
  using single precision KISS FFT
  3d grid and FFT values/proc = 4913 2592
Per MPI rank memory allocation (min/avg/max) = 5.425 | 5.447 | 5.490 Mbytes
Step Temp Atoms Density TotEng PotEng KinEng E_coul E_vdwl E_long Enthalpy Press 
   10900     0.978098     5202     0.752298 -13774.007151 -21404.641456  7630.634305   -57.358882 -21046.625342  -300.657233  1579.184799     2.220335 
Loop time of 2.98626e-06 on 27 procs for 0 steps with 5202 atoms

set atom 5031 charge 1.000000
Setting atom values ...
  1 settings made for charge
set atom 5164 charge -1.000000
Setting atom values ...
  1 settings made for charge
run 0 post no # charge return (reject_delete)
WARNING: No fixes defined, atoms won't move (../verlet.cpp:55)
PPPM initialization ...
  using 12-bit tables for long-range coulomb (../kspace.cpp:340)
  G vector (1/distance) = 0.80673798
  grid = 36 36 36
  stencil order = 5
  estimated absolute RMS force accuracy = 8.2278886e-05
  estimated relative force accuracy = 8.2278886e-05
  using single precision KISS FFT
  3d grid and FFT values/proc = 4913 2592
Per MPI rank memory allocation (min/avg/max) = 5.425 | 5.447 | 5.490 Mbytes
Step Temp Atoms Density TotEng PotEng KinEng E_coul E_vdwl E_long Enthalpy Press 
   10900     0.978098     5202     0.752298 -13779.719689 -21410.353994  7630.634305   -58.635109 -21046.625342  -305.093543  1571.566313     2.220059 
Loop time of 2.65115e-06 on 27 procs for 0 steps with 5202 atoms

run 0 post no # return_position back to old
WARNING: No fixes defined, atoms won't move (../verlet.cpp:55)
PPPM initialization ...
  using 12-bit tables for long-range coulomb (../kspace.cpp:340)
  G vector (1/distance) = 0.80673798
  grid = 36 36 36
  stencil order = 5
  estimated absolute RMS force accuracy = 8.2278886e-05
  estimated relative force accuracy = 8.2278886e-05
  using single precision KISS FFT
  3d grid and FFT values/proc = 4913 2592
Per MPI rank memory allocation (min/avg/max) = 5.425 | 5.447 | 5.490 Mbytes
Step Temp Atoms Density TotEng PotEng KinEng E_coul E_vdwl E_long Enthalpy Press 
   10900     0.983209     5202     0.752298 -15803.720738 -23474.228609  7670.507871   -60.386407 -23104.598253  -309.243949 -9016.530879     0.981544 
Loop time of 2.68556e-06 on 27 procs for 0 steps with 5202 atoms

group widom_test         delete
group noneq_run          delete
group noneq_run_rigid    delete
reset_timestep 10800

group   solvent delete
group   water   delete
group   ions    delete
group   wall    delete
group   flying  delete
group   eq_run  delete
        

group   solvent type 1
5000 atoms in group solvent
group   water   empty
0 atoms in group water
group   ions    type 2 3
202 atoms in group ions
group   wall    type 4 5
0 atoms in group wall
group   flying  type 6 7 8
0 atoms in group flying
group   eq_run  union solvent ions flying
5202 atoms in group eq_run
            
######################################################################
pair_style   lj/cut/coul/long 2.500000 3.500000
kspace_style pppm 0.0001

# LJ (neq? False)
# real lj particles
pair_coeff  * *         1.  1.  2.5   # solvent + ions
pair_coeff  4*5 4*5     0   0   2.5   # wall atoms

        
pair_modify  tail no shift yes mix arithmetic # LB mixing rule
neigh_modify delay 2 every 1 check yes page 500000 one 50000
######################################################################
# shake is off; should be a dummy run
timestep 0.005000
thermo 2000
fix  eqmd   eq_run nvt temp 1.000000 1.000000 0.500000
run 0 # (neq? False) MD run
PPPM initialization ...
  using 12-bit tables for long-range coulomb (../kspace.cpp:340)
  G vector (1/distance) = 0.80673798
  grid = 36 36 36
  stencil order = 5
  estimated absolute RMS force accuracy = 8.2278886e-05
  estimated relative force accuracy = 8.2278886e-05
  using single precision KISS FFT
  3d grid and FFT values/proc = 4913 2592
Per MPI rank memory allocation (min/avg/max) = 5.425 | 5.447 | 5.490 Mbytes
Step Temp Atoms Density TotEng PotEng KinEng E_coul E_vdwl E_long Enthalpy Press 
   10800     0.983209     5202     0.752298 -15803.720738 -23474.228609  7670.507871   -60.386407 -23104.598253  -309.243949 -9016.530879     0.981544 
Loop time of 4.3207e-06 on 27 procs for 0 steps with 5202 atoms

113.2% CPU use with 27 MPI tasks x no OpenMP threads

MPI task timing breakdown:
Section |  min time  |  avg time  |  max time  |%varavg| %total
---------------------------------------------------------------
Pair    | 0          | 0          | 0          |   0.0 |  0.00
Kspace  | 0          | 0          | 0          |   0.0 |  0.00
Neigh   | 0          | 0          | 0          |   0.0 |  0.00
Comm    | 0          | 0          | 0          |   0.0 |  0.00
Output  | 0          | 0          | 0          |   0.0 |  0.00
Modify  | 0          | 0          | 0          |   0.0 |  0.00
Other   |            | 4.321e-06  |            |       |100.00

Nlocal:        192.667 ave         205 max         181 min
Histogram: 2 1 2 5 5 4 3 2 2 1
Nghost:        1853.52 ave        1887 max        1819 min
Histogram: 1 1 3 1 9 2 4 4 0 2
Neighs:        16521.7 ave       17767 max       14964 min
Histogram: 2 0 2 3 5 5 2 2 3 3

Total # of neighbors = 446087
Ave neighs/atom = 85.752980
Neighbor list builds = 0
Dangerous builds = 0
unfix    eqmd
#chosen_cation deletion_move 2.505903 -1.422342 3.511284 # select_molecule
#chosen_anion deletion_move 1.229864 -1.605047 4.512627 # select_molecule
# selected_velocity_salt 5006 cation vel -0.475015 -0.874900 -0.324994
# selected_velocity_salt 5164 anion vel 0.140753 0.043084 -2.694801
group widom_test id  5006 5164 # select_molecule
2 atoms in group widom_test
set atom 5006 type 7
Setting atom values ...
  1 settings made for type
set atom 5164 type 8
Setting atom values ...
  1 settings made for type
run 0 post no # done selecting a flying molecule
WARNING: No fixes defined, atoms won't move (../verlet.cpp:55)
PPPM initialization ...
  using 12-bit tables for long-range coulomb (../kspace.cpp:340)
  G vector (1/distance) = 0.80673798
  grid = 36 36 36
  stencil order = 5
  estimated absolute RMS force accuracy = 8.2278886e-05
  estimated relative force accuracy = 8.2278886e-05
  using single precision KISS FFT
  3d grid and FFT values/proc = 4913 2592
Per MPI rank memory allocation (min/avg/max) = 5.425 | 5.447 | 5.490 Mbytes
Step Temp Atoms Density TotEng PotEng KinEng E_coul E_vdwl E_long Enthalpy Press 
   10800     0.983209     5202     0.752298 -15803.720738 -23474.228609  7670.507871   -60.386407 -23104.598253  -309.243949 -9016.530879     0.981544 
Loop time of 3.31215e-06 on 27 procs for 0 steps with 5202 atoms

group noneq_run_rigid    intersect   all         water               # select_salt no selection
0 atoms in group noneq_run_rigid
group noneq_run_pre      subtract    all         noneq_run_rigid     # select_salt no selection
5202 atoms in group noneq_run_pre
group noneq_run          subtract    noneq_run_pre   widom_test      # select_salt no selection
5200 atoms in group noneq_run
group noneq_run_pre      delete
run 0 post no # mom rev random number
WARNING: No fixes defined, atoms won't move (../verlet.cpp:55)
PPPM initialization ...
  using 12-bit tables for long-range coulomb (../kspace.cpp:340)
  G vector (1/distance) = 0.80673798
  grid = 36 36 36
  stencil order = 5
  estimated absolute RMS force accuracy = 8.2278886e-05
  estimated relative force accuracy = 8.2278886e-05
  using single precision KISS FFT
  3d grid and FFT values/proc = 4913 2592
Per MPI rank memory allocation (min/avg/max) = 5.425 | 5.447 | 5.490 Mbytes
Step Temp Atoms Density TotEng PotEng KinEng E_coul E_vdwl E_long Enthalpy Press 
   10800     0.983209     5202     0.752298 -15803.720738 -23474.228609  7670.507871   -60.386407 -23104.598253  -309.243949 -9016.530879     0.981544 
Loop time of 3.55419e-06 on 27 procs for 0 steps with 5202 atoms

######################################################################
pair_style   lj/cut/coul/long/neq 2.500000 3.500000 10800 100 1.000000 5 0 0 1.000000 1.000000 11 1.000000
kspace_style pppm 0.0001

# LJ (neq? True)
# real lj particles
pair_coeff  * *         1.  1.  2.5   # solvent + ions
pair_coeff  4*5 4*5     0   0   2.5   # wall atoms

        
pair_modify  tail no shift yes mix arithmetic # LB mixing rule
neigh_modify delay 2 every 1 check yes page 500000 one 50000
######################################################################
timestep 0.010000
fix  eqmd  noneq_run           nve                 # nve for non-rigid
run 100 # (neq? True) MD run
PPPM initialization ...
  using 12-bit tables for long-range coulomb (../kspace.cpp:340)
  G vector (1/distance) = 0.80673798
  grid = 36 36 36
  stencil order = 5
  estimated absolute RMS force accuracy = 8.2278886e-05
  estimated relative force accuracy = 8.2278886e-05
  using single precision KISS FFT
  3d grid and FFT values/proc = 4913 2592
Neighbor list info ...
  update every 1 steps, delay 2 steps, check yes
  max neighbors/atom: 50000, page size: 500000
  master list distance cutoff = 3.8
  ghost atom cutoff = 3.8
  binsize = 1.9, bins = 11 11 11
  1 neighbor lists, perpetual/occasional/extra = 1 0 0
  (1) pair lj/cut/coul/long/neq, perpetual
      attributes: half, newton on
      pair build: half/bin/atomonly/newton
      stencil: half/bin/3d
      bin: standard
Per MPI rank memory allocation (min/avg/max) = 5.425 | 5.447 | 5.490 Mbytes
Step Temp Atoms Density TotEng PotEng KinEng E_coul E_vdwl E_long Enthalpy Press 
   10800     0.983209     5202     0.752298 -15803.720738 -23474.228609  7670.507871   -60.386407 -23104.598253  -309.243949 -9016.530879     0.981544 
   10900     0.981030     5202     0.752298 -15796.087437 -23449.590113  7653.502676   -56.373822 -23087.990664  -305.225627 -8969.612014     0.987225 
Loop time of 0.308157 on 27 procs for 100 steps with 5202 atoms

Performance: 280376.722 tau/day, 324.510 timesteps/s
92.6% CPU use with 27 MPI tasks x no OpenMP threads

MPI task timing breakdown:
Section |  min time  |  avg time  |  max time  |%varavg| %total
---------------------------------------------------------------
Pair    | 0.061852   | 0.09566    | 0.11204    |   5.0 | 31.04
Kspace  | 0.15553    | 0.17371    | 0.20974    |   3.9 | 56.37
Neigh   | 0.014731   | 0.021218   | 0.024378   |   2.0 |  6.89
Comm    | 0.01347    | 0.015369   | 0.019817   |   1.6 |  4.99
Output  | 5.2712e-05 | 6.3127e-05 | 0.00018238 |   0.0 |  0.02
Modify  | 0.00036417 | 0.00051232 | 0.00060081 |   0.0 |  0.17
Other   |            | 0.001623   |            |       |  0.53

Nlocal:        192.667 ave         203 max         181 min
Histogram: 1 2 2 3 2 7 4 3 1 2
Nghost:        1845.00 ave        1865 max        1820 min
Histogram: 1 2 1 2 4 4 5 4 2 2
Neighs:        16518.8 ave       17947 max       15050 min
Histogram: 1 1 5 2 5 3 4 2 2 2

Total # of neighbors = 446007
Ave neighs/atom = 85.737601
Neighbor list builds = 25
Dangerous builds = 0
unfix    eqmd

group   solvent type 1
5000 atoms in group solvent
group   water   empty
0 atoms in group water
group   ions    type 2 3
202 atoms in group ions
group   wall    type 4 5
0 atoms in group wall
group   flying  type 6 7 8
2 atoms in group flying
group   eq_run  union solvent ions flying
5202 atoms in group eq_run
            
######################################################################
pair_style   lj/cut/coul/long 2.500000 3.500000
kspace_style pppm 0.0001

# LJ (neq? False)
# real lj particles
pair_coeff  * *         1.  1.  2.5   # solvent + ions
pair_coeff  4*5 4*5     0   0   2.5   # wall atoms

        
pair_modify  tail no shift yes mix arithmetic # LB mixing rule
neigh_modify delay 2 every 1 check yes page 500000 one 50000
######################################################################
# dealing with ideal flying particles: force field=simple_lj

# Non-interacting flying lj molecule (trial deletion)
# real lj particles
pair_coeff  * *         1.  1.  2.5   # solvent + ions
pair_coeff  4*5 4*5     0   0   2.5   # wall atoms
# flying particles
pair_coeff  * 6         0   0   2.5   # flying solvent  non-interacting
pair_coeff  * 7         0   0   2.5   # flying cation   non-interacting
pair_coeff  * 8         0   0   2.5   # flying anion    non-interacting

# flying solvetn or ions
set type 6  charge 0.                       # non-interacting
Setting atom values ...
  0 settings made for charge
set type 7  charge 0.                       # non-interacting
Setting atom values ...
  1 settings made for charge
set type 8  charge 0.                       # non-interacting
Setting atom values ...
  1 settings made for charge
        
run 0 post no # making flying moelcule non-interacting
WARNING: No fixes defined, atoms won't move (../verlet.cpp:55)
PPPM initialization ...
  using 12-bit tables for long-range coulomb (../kspace.cpp:340)
  G vector (1/distance) = 0.80656374
  grid = 36 36 36
  stencil order = 5
  estimated absolute RMS force accuracy = 8.1571722e-05
  estimated relative force accuracy = 8.1571722e-05
  using single precision KISS FFT
  3d grid and FFT values/proc = 4913 2592
Neighbor list info ...
  update every 1 steps, delay 2 steps, check yes
  max neighbors/atom: 50000, page size: 500000
  master list distance cutoff = 3.8
  ghost atom cutoff = 3.8
  binsize = 1.9, bins = 11 11 11
  1 neighbor lists, perpetual/occasional/extra = 1 0 0
  (1) pair lj/cut/coul/long, perpetual
      attributes: half, newton on
      pair build: half/bin/atomonly/newton
      stencil: half/bin/3d
      bin: standard
Per MPI rank memory allocation (min/avg/max) = 5.425 | 5.447 | 5.490 Mbytes
Step Temp Atoms Density TotEng PotEng KinEng E_coul E_vdwl E_long Enthalpy Press 
   10900     0.981030     5202     0.752298 -15783.128111 -23436.630787  7653.502676   -56.354331 -23078.546631  -301.729826 -8944.643714     0.988962 
Loop time of 2.71015e-06 on 27 procs for 0 steps with 5202 atoms

# done post_propagate after NEMD
# selected salt 5006/5164
#The center of bimodal dist. on a positive side=0.800000
set type 7 type 2
Setting atom values ...
  1 settings made for type
set type 8 type 3
Setting atom values ...
  1 settings made for type
run 0 post no # lj type change (reject_delete)
WARNING: No fixes defined, atoms won't move (../verlet.cpp:55)
PPPM initialization ...
  using 12-bit tables for long-range coulomb (../kspace.cpp:340)
  G vector (1/distance) = 0.80656374
  grid = 36 36 36
  stencil order = 5
  estimated absolute RMS force accuracy = 8.1571722e-05
  estimated relative force accuracy = 8.1571722e-05
  using single precision KISS FFT
  3d grid and FFT values/proc = 4913 2592
Per MPI rank memory allocation (min/avg/max) = 5.425 | 5.447 | 5.490 Mbytes
Step Temp Atoms Density TotEng PotEng KinEng E_coul E_vdwl E_long Enthalpy Press 
   10900     0.981030     5202     0.752298 -15453.382918 -23106.885593  7653.502676   -56.354331 -22748.801437  -301.729826 -7063.910697     1.213262 
Loop time of 2.70085e-06 on 27 procs for 0 steps with 5202 atoms

set atom 5006 charge 1.000000
Setting atom values ...
  1 settings made for charge
set atom 5164 charge -1.000000
Setting atom values ...
  1 settings made for charge
run 0 post no # charge return (reject_delete)
WARNING: No fixes defined, atoms won't move (../verlet.cpp:55)
PPPM initialization ...
  using 12-bit tables for long-range coulomb (../kspace.cpp:340)
  G vector (1/distance) = 0.80673798
  grid = 36 36 36
  stencil order = 5
  estimated absolute RMS force accuracy = 8.2278886e-05
  estimated relative force accuracy = 8.2278886e-05
  using single precision KISS FFT
  3d grid and FFT values/proc = 4913 2592
Per MPI rank memory allocation (min/avg/max) = 5.425 | 5.447 | 5.490 Mbytes
Step Temp Atoms Density TotEng PotEng KinEng E_coul E_vdwl E_long Enthalpy Press 
   10900     0.981030     5202     0.752298 -15457.192750 -23110.695426  7653.502676   -56.668362 -22748.801437  -305.225627 -7068.989521     1.213078 
Loop time of 2.54252e-06 on 27 procs for 0 steps with 5202 atoms

run 0 post no # return_position back to old
WARNING: No fixes defined, atoms won't move (../verlet.cpp:55)
PPPM initialization ...
  using 12-bit tables for long-range coulomb (../kspace.cpp:340)
  G vector (1/distance) = 0.80673798
  grid = 36 36 36
  stencil order = 5
  estimated absolute RMS force accuracy = 8.2278886e-05
  estimated relative force accuracy = 8.2278886e-05
  using single precision KISS FFT
  3d grid and FFT values/proc = 4913 2592
Per MPI rank memory allocation (min/avg/max) = 5.425 | 5.447 | 5.490 Mbytes
Step Temp Atoms Density TotEng PotEng KinEng E_coul E_vdwl E_long Enthalpy Press 
   10900     0.983209     5202     0.752298 -15803.720738 -23474.228609  7670.507871   -60.386407 -23104.598253  -309.243949 -9016.530879     0.981544 
Loop time of 2.65674e-06 on 27 procs for 0 steps with 5202 atoms

group widom_test         delete
group noneq_run          delete
group noneq_run_rigid    delete
reset_timestep 10800

group   solvent delete
group   water   delete
group   ions    delete
group   wall    delete
group   flying  delete
group   eq_run  delete
        

group   solvent type 1
5000 atoms in group solvent
group   water   empty
0 atoms in group water
group   ions    type 2 3
202 atoms in group ions
group   wall    type 4 5
0 atoms in group wall
group   flying  type 6 7 8
0 atoms in group flying
group   eq_run  union solvent ions flying
5202 atoms in group eq_run
            
######################################################################
pair_style   lj/cut/coul/long 2.500000 3.500000
kspace_style pppm 0.0001

# LJ (neq? False)
# real lj particles
pair_coeff  * *         1.  1.  2.5   # solvent + ions
pair_coeff  4*5 4*5     0   0   2.5   # wall atoms

        
pair_modify  tail no shift yes mix arithmetic # LB mixing rule
neigh_modify delay 2 every 1 check yes page 500000 one 50000
######################################################################
# shake is off; should be a dummy run
timestep 0.005000
thermo 2000
fix  eqmd   eq_run nvt temp 1.000000 1.000000 0.500000
run 0 # (neq? False) MD run
PPPM initialization ...
  using 12-bit tables for long-range coulomb (../kspace.cpp:340)
  G vector (1/distance) = 0.80673798
  grid = 36 36 36
  stencil order = 5
  estimated absolute RMS force accuracy = 8.2278886e-05
  estimated relative force accuracy = 8.2278886e-05
  using single precision KISS FFT
  3d grid and FFT values/proc = 4913 2592
Per MPI rank memory allocation (min/avg/max) = 5.425 | 5.447 | 5.490 Mbytes
Step Temp Atoms Density TotEng PotEng KinEng E_coul E_vdwl E_long Enthalpy Press 
   10800     0.983209     5202     0.752298 -15803.720738 -23474.228609  7670.507871   -60.386407 -23104.598253  -309.243949 -9016.530879     0.981544 
Loop time of 4.11496e-06 on 27 procs for 0 steps with 5202 atoms

0.0% CPU use with 27 MPI tasks x no OpenMP threads

MPI task timing breakdown:
Section |  min time  |  avg time  |  max time  |%varavg| %total
---------------------------------------------------------------
Pair    | 0          | 0          | 0          |   0.0 |  0.00
Kspace  | 0          | 0          | 0          |   0.0 |  0.00
Neigh   | 0          | 0          | 0          |   0.0 |  0.00
Comm    | 0          | 0          | 0          |   0.0 |  0.00
Output  | 0          | 0          | 0          |   0.0 |  0.00
Modify  | 0          | 0          | 0          |   0.0 |  0.00
Other   |            | 4.115e-06  |            |       |100.00

Nlocal:        192.667 ave         205 max         181 min
Histogram: 2 1 2 5 5 4 3 2 2 1
Nghost:        1853.52 ave        1887 max        1819 min
Histogram: 1 1 3 1 9 2 4 4 0 2
Neighs:        16521.7 ave       17767 max       14964 min
Histogram: 2 0 2 3 5 5 2 2 3 3

Total # of neighbors = 446087
Ave neighs/atom = 85.752980
Neighbor list builds = 0
Dangerous builds = 0
unfix    eqmd
#chosen_cation deletion_move 2.650425 -0.548301 5.831316 # select_molecule
#chosen_anion deletion_move 1.229864 -1.605047 4.512627 # select_molecule
# selected_velocity_salt 5031 cation vel -0.391848 0.235747 0.032719
# selected_velocity_salt 5164 anion vel 0.140753 0.043084 -2.694801
group widom_test id  5031 5164 # select_molecule
2 atoms in group widom_test
set atom 5031 type 7
Setting atom values ...
  1 settings made for type
set atom 5164 type 8
Setting atom values ...
  1 settings made for type
run 0 post no # done selecting a flying molecule
WARNING: No fixes defined, atoms won't move (../verlet.cpp:55)
PPPM initialization ...
  using 12-bit tables for long-range coulomb (../kspace.cpp:340)
  G vector (1/distance) = 0.80673798
  grid = 36 36 36
  stencil order = 5
  estimated absolute RMS force accuracy = 8.2278886e-05
  estimated relative force accuracy = 8.2278886e-05
  using single precision KISS FFT
  3d grid and FFT values/proc = 4913 2592
Per MPI rank memory allocation (min/avg/max) = 5.425 | 5.447 | 5.490 Mbytes
Step Temp Atoms Density TotEng PotEng KinEng E_coul E_vdwl E_long Enthalpy Press 
   10800     0.983209     5202     0.752298 -15803.720738 -23474.228609  7670.507871   -60.386407 -23104.598253  -309.243949 -9016.530879     0.981544 
Loop time of 2.95841e-06 on 27 procs for 0 steps with 5202 atoms

group noneq_run_rigid    intersect   all         water               # select_salt no selection
0 atoms in group noneq_run_rigid
group noneq_run_pre      subtract    all         noneq_run_rigid     # select_salt no selection
5202 atoms in group noneq_run_pre
group noneq_run          subtract    noneq_run_pre   widom_test      # select_salt no selection
[...]
group   water   empty
0 atoms in group water
group   ions    type 2 3
202 atoms in group ions
group   wall    type 4 5
0 atoms in group wall
group   flying  type 6 7 8
2 atoms in group flying
group   eq_run  union solvent ions flying
5202 atoms in group eq_run
            
######################################################################
pair_style   lj/cut/coul/long 2.500000 3.500000
kspace_style pppm 0.0001

# LJ (neq? False)
# real lj particles
pair_coeff  * *         1.  1.  2.5   # solvent + ions
pair_coeff  4*5 4*5     0   0   2.5   # wall atoms

        
pair_modify  tail no shift yes mix arithmetic # LB mixing rule
neigh_modify delay 2 every 1 check yes page 500000 one 50000
######################################################################
# dealing with ideal flying particles: force field=simple_lj

# Non-interacting flying lj molecule (trial deletion)
# real lj particles
pair_coeff  * *         1.  1.  2.5   # solvent + ions
pair_coeff  4*5 4*5     0   0   2.5   # wall atoms
# flying particles
pair_coeff  * 6         0   0   2.5   # flying solvent  non-interacting
pair_coeff  * 7         0   0   2.5   # flying cation   non-interacting
pair_coeff  * 8         0   0   2.5   # flying anion    non-interacting

# flying solvetn or ions
set type 6  charge 0.                       # non-interacting
Setting atom values ...
  0 settings made for charge
set type 7  charge 0.                       # non-interacting
Setting atom values ...
  1 settings made for charge
set type 8  charge 0.                       # non-interacting
Setting atom values ...
  1 settings made for charge
        
run 0 post no # making flying moelcule non-interacting
PPPM initialization ...
  using 12-bit tables for long-range coulomb (../kspace.cpp:340)
  G vector (1/distance) = 0.80656374
  grid = 36 36 36
  stencil order = 5
  estimated absolute RMS force accuracy = 8.1571722e-05
  estimated relative force accuracy = 8.1571722e-05
  using single precision KISS FFT
  3d grid and FFT values/proc = 4913 2592
Neighbor list info ...
  update every 1 steps, delay 2 steps, check yes
  max neighbors/atom: 50000, page size: 500000
  master list distance cutoff = 3.8
  ghost atom cutoff = 3.8
  binsize = 1.9, bins = 11 11 11
  1 neighbor lists, perpetual/occasional/extra = 1 0 0
  (1) pair lj/cut/coul/long, perpetual
      attributes: half, newton on
      pair build: half/bin/atomonly/newton
      stencil: half/bin/3d
      bin: standard
Per MPI rank memory allocation (min/avg/max) = 5.425 | 5.447 | 5.490 Mbytes
Step Temp Atoms Density TotEng PotEng KinEng E_coul E_vdwl E_long Enthalpy Press 
   10900     0.984260     5202     0.752298 -15790.909652 -23469.614963  7678.705311   -56.952012 -23109.820818  -302.842133 -9149.861439     0.960409 
Loop time of 2.78767e-06 on 27 procs for 0 steps with 5202 atoms

# done post_propagate after NEMD
# selected salt 5024/5128
#The center of bimodal dist. on a positive side=0.800000
set type 7 type 2
Setting atom values ...
  1 settings made for type
set type 8 type 3
Setting atom values ...
  1 settings made for type
run 0 post no # lj type change (reject_delete)
PPPM initialization ...
  using 12-bit tables for long-range coulomb (../kspace.cpp:340)
  G vector (1/distance) = 0.80656374
  grid = 36 36 36
  stencil order = 5
  estimated absolute RMS force accuracy = 8.1571722e-05
  estimated relative force accuracy = 8.1571722e-05
  using single precision KISS FFT
  3d grid and FFT values/proc = 4913 2592
Per MPI rank memory allocation (min/avg/max) = 5.425 | 5.447 | 5.490 Mbytes
Step Temp Atoms Density TotEng PotEng KinEng E_coul E_vdwl E_long Enthalpy Press 
   10900     0.984260     5202     0.752298 -9456.540378 -17135.245689  7678.705311   -56.952012 -16775.451544  -302.842133 23223.961961     4.726161 
Loop time of 3.30174e-06 on 27 procs for 0 steps with 5202 atoms

set atom 5024 charge 1.000000
Setting atom values ...
  1 settings made for charge
set atom 5128 charge -1.000000
Setting atom values ...
  1 settings made for charge
run 0 post no # charge return (reject_delete)
PPPM initialization ...
  using 12-bit tables for long-range coulomb (../kspace.cpp:340)
  G vector (1/distance) = 0.80673798
  grid = 36 36 36
  stencil order = 5
  estimated absolute RMS force accuracy = 8.2278886e-05
  estimated relative force accuracy = 8.2278886e-05
  using single precision KISS FFT
  3d grid and FFT values/proc = 4913 2592
Per MPI rank memory allocation (min/avg/max) = 5.425 | 5.447 | 5.490 Mbytes
Step Temp Atoms Density TotEng PotEng KinEng E_coul E_vdwl E_long Enthalpy Press 
   10900     0.984260     5202     0.752298 -9459.319150 -17138.024462  7678.705311   -57.007523 -16775.451544  -305.565395 23220.256625     4.726027 
Loop time of 2.5887e-06 on 27 procs for 0 steps with 5202 atoms

run 0 post no # return_position back to old
PPPM initialization ...
  using 12-bit tables for long-range coulomb (../kspace.cpp:340)
  G vector (1/distance) = 0.80673798
  grid = 36 36 36
  stencil order = 5
  estimated absolute RMS force accuracy = 8.2278886e-05
  estimated relative force accuracy = 8.2278886e-05
  using single precision KISS FFT
  3d grid and FFT values/proc = 4913 2592
Per MPI rank memory allocation (min/avg/max) = 5.425 | 5.447 | 5.490 Mbytes
Step Temp Atoms Density TotEng PotEng KinEng E_coul E_vdwl E_long Enthalpy Press 
   10900     0.983209     5202     0.752298 -15803.720738 -23474.228609  7670.507871   -60.386407 -23104.598253  -309.243949 -9016.530879     0.981544 
Loop time of 2.73444e-06 on 27 procs for 0 steps with 5202 atoms

group widom_test         delete
group noneq_run          delete
group noneq_run_rigid    delete
reset_timestep 10800

group   solvent delete
group   water   delete
group   ions    delete
group   wall    delete
group   flying  delete
group   eq_run  delete
        

group   solvent type 1
5000 atoms in group solvent
group   water   empty
0 atoms in group water
group   ions    type 2 3
202 atoms in group ions
group   wall    type 4 5
0 atoms in group wall
group   flying  type 6 7 8
0 atoms in group flying
group   eq_run  union solvent ions flying
5202 atoms in group eq_run
            
######################################################################
pair_style   lj/cut/coul/long 2.500000 3.500000
kspace_style pppm 0.0001

# LJ (neq? False)
# real lj particles
pair_coeff  * *         1.  1.  2.5   # solvent + ions
pair_coeff  4*5 4*5     0   0   2.5   # wall atoms

        
pair_modify  tail no shift yes mix arithmetic # LB mixing rule
neigh_modify delay 2 every 1 check yes page 500000 one 50000
######################################################################
# shake is off; should be a dummy run
timestep 0.005000
thermo 2000
fix  eqmd   eq_run nvt temp 1.000000 1.000000 0.500000
run 0 # (neq? False) MD run
PPPM initialization ...
  using 12-bit tables for long-range coulomb (../kspace.cpp:340)
  G vector (1/distance) = 0.80673798
  grid = 36 36 36
  stencil order = 5
  estimated absolute RMS force accuracy = 8.2278886e-05
  estimated relative force accuracy = 8.2278886e-05
  using single precision KISS FFT
  3d grid and FFT values/proc = 4913 2592
Per MPI rank memory allocation (min/avg/max) = 5.425 | 5.447 | 5.490 Mbytes
Step Temp Atoms Density TotEng PotEng KinEng E_coul E_vdwl E_long Enthalpy Press 
   10800     0.983209     5202     0.752298 -15803.720738 -23474.228609  7670.507871   -60.386407 -23104.598253  -309.243949 -9016.530879     0.981544 
Loop time of 3.18037e-06 on 27 procs for 0 steps with 5202 atoms

129.3% CPU use with 27 MPI tasks x no OpenMP threads

MPI task timing breakdown:
Section |  min time  |  avg time  |  max time  |%varavg| %total
---------------------------------------------------------------
Pair    | 0          | 0          | 0          |   0.0 |  0.00
Kspace  | 0          | 0          | 0          |   0.0 |  0.00
Neigh   | 0          | 0          | 0          |   0.0 |  0.00
Comm    | 0          | 0          | 0          |   0.0 |  0.00
Output  | 0          | 0          | 0          |   0.0 |  0.00
Modify  | 0          | 0          | 0          |   0.0 |  0.00
Other   |            | 3.18e-06   |            |       |100.00

Nlocal:        192.667 ave         205 max         181 min
Histogram: 2 1 2 5 5 4 3 2 2 1
Nghost:        1853.52 ave        1887 max        1819 min
Histogram: 1 1 3 1 9 2 4 4 0 2
Neighs:        16521.7 ave       17767 max       14964 min
Histogram: 2 0 2 3 5 5 2 2 3 3

Total # of neighbors = 446087
Ave neighs/atom = 85.752980
Neighbor list builds = 0
Dangerous builds = 0
unfix    eqmd
#chosen_cation deletion_move 2.927869 5.397416 -0.172764 # select_molecule
#chosen_anion deletion_move 1.454872 4.744877 -2.569210 # select_molecule
# selected_velocity_salt 5083 cation vel 1.529831 0.868309 2.111795
# selected_velocity_salt 5111 anion vel -1.225010 -2.313667 -0.876471
group widom_test id  5083 5111 # select_molecule
2 atoms in group widom_test
set atom 5083 type 7
Setting atom values ...
  1 settings made for type
set atom 5111 type 8
Setting atom values ...
  1 settings made for type
run 0 post no # done selecting a flying molecule
PPPM initialization ...
  using 12-bit tables for long-range coulomb (../kspace.cpp:340)
  G vector (1/distance) = 0.80673798
  grid = 36 36 36
  stencil order = 5
  estimated absolute RMS force accuracy = 8.2278886e-05
  estimated relative force accuracy = 8.2278886e-05
  using single precision KISS FFT
  3d grid and FFT values/proc = 4913 2592
Per MPI rank memory allocation (min/avg/max) = 5.425 | 5.447 | 5.490 Mbytes
Step Temp Atoms Density TotEng PotEng KinEng E_coul E_vdwl E_long Enthalpy Press 
   10800     0.983209     5202     0.752298 -15803.720738 -23474.228609  7670.507871   -60.386407 -23104.598253  -309.243949 -9016.530879     0.981544 
Loop time of 2.93167e-06 on 27 procs for 0 steps with 5202 atoms

group noneq_run_rigid    intersect   all         water               # select_salt no selection
0 atoms in group noneq_run_rigid
group noneq_run_pre      subtract    all         noneq_run_rigid     # select_salt no selection
5202 atoms in group noneq_run_pre
group noneq_run          subtract    noneq_run_pre   widom_test      # select_salt no selection
5200 atoms in group noneq_run
group noneq_run_pre      delete
run 0 post no # mom rev random number
PPPM initialization ...
  using 12-bit tables for long-range coulomb (../kspace.cpp:340)
  G vector (1/distance) = 0.80673798
  grid = 36 36 36
  stencil order = 5
  estimated absolute RMS force accuracy = 8.2278886e-05
  estimated relative force accuracy = 8.2278886e-05
  using single precision KISS FFT
  3d grid and FFT values/proc = 4913 2592
Per MPI rank memory allocation (min/avg/max) = 5.425 | 5.447 | 5.490 Mbytes
Step Temp Atoms Density TotEng PotEng KinEng E_coul E_vdwl E_long Enthalpy Press 
   10800     0.983209     5202     0.752298 -15803.720738 -23474.228609  7670.507871   -60.386407 -23104.598253  -309.243949 -9016.530879     0.981544 
Loop time of 3.00337e-06 on 27 procs for 0 steps with 5202 atoms

######################################################################
pair_style   lj/cut/coul/long/neq 2.500000 3.500000 10800 100 1.000000 5 0 0 1.000000 1.000000 11 1.000000
kspace_style pppm 0.0001

# LJ (neq? True)
# real lj particles
pair_coeff  * *         1.  1.  2.5   # solvent + ions
pair_coeff  4*5 4*5     0   0   2.5   # wall atoms

        
pair_modify  tail no shift yes mix arithmetic # LB mixing rule
neigh_modify delay 2 every 1 check yes page 500000 one 50000
######################################################################
timestep 0.010000
fix  eqmd  noneq_run           nve                 # nve for non-rigid
run 100 # (neq? True) MD run
PPPM initialization ...
  using 12-bit tables for long-range coulomb (../kspace.cpp:340)
  G vector (1/distance) = 0.80673798
  grid = 36 36 36
  stencil order = 5
  estimated absolute RMS force accuracy = 8.2278886e-05
  estimated relative force accuracy = 8.2278886e-05
  using single precision KISS FFT
  3d grid and FFT values/proc = 4913 2592
Neighbor list info ...
  update every 1 steps, delay 2 steps, check yes
  max neighbors/atom: 50000, page size: 500000
  master list distance cutoff = 3.8
  ghost atom cutoff = 3.8
  binsize = 1.9, bins = 11 11 11
  1 neighbor lists, perpetual/occasional/extra = 1 0 0
  (1) pair lj/cut/coul/long/neq, perpetual
      attributes: half, newton on
      pair build: half/bin/atomonly/newton
      stencil: half/bin/3d
      bin: standard
Per MPI rank memory allocation (min/avg/max) = 5.425 | 5.447 | 5.490 Mbytes
Step Temp Atoms Density TotEng PotEng KinEng E_coul E_vdwl E_long Enthalpy Press 
   10800     0.983209     5202     0.752298 -15803.720738 -23474.228609  7670.507871   -60.386407 -23104.598253  -309.243949 -9016.530879     0.981544 
   10900     0.980749     5202     0.752298 -15800.124093 -23451.434770  7651.310678   -58.952394 -23086.488666  -305.993711 -9053.449608     0.975685 
Loop time of 0.309819 on 27 procs for 100 steps with 5202 atoms

Performance: 278872.663 tau/day, 322.769 timesteps/s
92.6% CPU use with 27 MPI tasks x no OpenMP threads

MPI task timing breakdown:
Section |  min time  |  avg time  |  max time  |%varavg| %total
---------------------------------------------------------------
Pair    | 0.059834   | 0.095211   | 0.11213    |   5.3 | 30.73
Kspace  | 0.15595    | 0.17483    | 0.21277    |   4.1 | 56.43
Neigh   | 0.015332   | 0.022      | 0.025243   |   2.0 |  7.10
Comm    | 0.0138     | 0.015584   | 0.019847   |   1.5 |  5.03
Output  | 5.4603e-05 | 6.3985e-05 | 0.00018165 |   0.0 |  0.02
Modify  | 0.00035617 | 0.00052654 | 0.0006423  |   0.0 |  0.17
Other   |            | 0.0016     |            |       |  0.52

Nlocal:        192.667 ave         204 max         179 min
Histogram: 1 1 2 2 3 6 6 3 1 2
Nghost:        1841.89 ave        1870 max        1817 min
Histogram: 2 0 3 5 3 7 4 2 0 1
Neighs:        16513.9 ave       17985 max       14892 min
Histogram: 1 1 4 2 4 7 2 2 2 2

Total # of neighbors = 445875
Ave neighs/atom = 85.712226
Neighbor list builds = 26
Dangerous builds = 0
unfix    eqmd

group   solvent type 1
5000 atoms in group solvent
group   water   empty
0 atoms in group water
group   ions    type 2 3
202 atoms in group ions
group   wall    type 4 5
0 atoms in group wall
group   flying  type 6 7 8
2 atoms in group flying
group   eq_run  union solvent ions flying
5202 atoms in group eq_run
            
######################################################################
pair_style   lj/cut/coul/long 2.500000 3.500000
kspace_style pppm 0.0001

# LJ (neq? False)
# real lj particles
pair_coeff  * *         1.  1.  2.5   # solvent + ions
pair_coeff  4*5 4*5     0   0   2.5   # wall atoms

        
pair_modify  tail no shift yes mix arithmetic # LB mixing rule
neigh_modify delay 2 every 1 check yes page 500000 one 50000
######################################################################
# dealing with ideal flying particles: force field=simple_lj

# Non-interacting flying lj molecule (trial deletion)
# real lj particles
pair_coeff  * *         1.  1.  2.5   # solvent + ions
pair_coeff  4*5 4*5     0   0   2.5   # wall atoms
# flying particles
pair_coeff  * 6         0   0   2.5   # flying solvent  non-interacting
pair_coeff  * 7         0   0   2.5   # flying cation   non-interacting
pair_coeff  * 8         0   0   2.5   # flying anion    non-interacting

# flying solvetn or ions
set type 6  charge 0.                       # non-interacting
Setting atom values ...
  0 settings made for charge
set type 7  charge 0.                       # non-interacting
Setting atom values ...
  1 settings made for charge
set type 8  charge 0.                       # non-interacting
Setting atom values ...
  1 settings made for charge
        
run 0 post no # making flying moelcule non-interacting
PPPM initialization ...
  using 12-bit tables for long-range coulomb (../kspace.cpp:340)
  G vector (1/distance) = 0.80656374
  grid = 36 36 36
  stencil order = 5
  estimated absolute RMS force accuracy = 8.1571722e-05
  estimated relative force accuracy = 8.1571722e-05
  using single precision KISS FFT
  3d grid and FFT values/proc = 4913 2592
Neighbor list info ...
  update every 1 steps, delay 2 steps, check yes
  max neighbors/atom: 50000, page size: 500000
  master list distance cutoff = 3.8
  ghost atom cutoff = 3.8
  binsize = 1.9, bins = 11 11 11
  1 neighbor lists, perpetual/occasional/extra = 1 0 0
  (1) pair lj/cut/coul/long, perpetual
      attributes: half, newton on
      pair build: half/bin/atomonly/newton
      stencil: half/bin/3d
      bin: standard
Per MPI rank memory allocation (min/avg/max) = 5.425 | 5.447 | 5.490 Mbytes
Step Temp Atoms Density TotEng PotEng KinEng E_coul E_vdwl E_long Enthalpy Press 
   10900     0.980749     5202     0.752298 -15785.240106 -23436.550784  7651.310678   -58.732656 -23076.957332  -300.860795 -9028.174062     0.977188 
Loop time of 2.75293e-06 on 27 procs for 0 steps with 5202 atoms

# done post_propagate after NEMD
# selected salt 5083/5111
#The center of bimodal dist. on a positive side=0.800000
set type 7 type 2
Setting atom values ...
  1 settings made for type
set type 8 type 3
Setting atom values ...
  1 settings made for type
run 0 post no # lj type change (reject_delete)
PPPM initialization ...
  using 12-bit tables for long-range coulomb (../kspace.cpp:340)
  G vector (1/distance) = 0.80656374
  grid = 36 36 36
  stencil order = 5
  estimated absolute RMS force accuracy = 8.1571722e-05
  estimated relative force accuracy = 8.1571722e-05
  using single precision KISS FFT
  3d grid and FFT values/proc = 4913 2592
Per MPI rank memory allocation (min/avg/max) = 5.425 | 5.447 | 5.490 Mbytes
Step Temp Atoms Density TotEng PotEng KinEng E_coul E_vdwl E_long Enthalpy Press 
   10900     0.980749     5202     0.752298  8165.562079   514.251401  7651.310678   -58.732656   873.844853  -300.860795 111669.844582    14.968494 
Loop time of 3.23348e-06 on 27 procs for 0 steps with 5202 atoms

set atom 5083 charge 1.000000
Setting atom values ...
  1 settings made for charge
set atom 5111 charge -1.000000
Setting atom values ...
  1 settings made for charge
run 0 post no # charge return (reject_delete)
PPPM initialization ...
  using 12-bit tables for long-range coulomb (../kspace.cpp:340)
  G vector (1/distance) = 0.80673798
  grid = 36 36 36
  stencil order = 5
  estimated absolute RMS force accuracy = 8.2278886e-05
  estimated relative force accuracy = 8.2278886e-05
  using single precision KISS FFT
  3d grid and FFT values/proc = 4913 2592
Per MPI rank memory allocation (min/avg/max) = 5.425 | 5.447 | 5.490 Mbytes
Step Temp Atoms Density TotEng PotEng KinEng E_coul E_vdwl E_long Enthalpy Press 
   10900     0.980749     5202     0.752298  8157.395628   506.084950  7651.310678   -61.766192   873.844853  -305.993711 111658.955546    14.968100 
Loop time of 2.789e-06 on 27 procs for 0 steps with 5202 atoms

run 0 post no # return_position back to old
PPPM initialization ...
  using 12-bit tables for long-range coulomb (../kspace.cpp:340)
  G vector (1/distance) = 0.80673798
  grid = 36 36 36
  stencil order = 5
  estimated absolute RMS force accuracy = 8.2278886e-05
  estimated relative force accuracy = 8.2278886e-05
  using single precision KISS FFT
  3d grid and FFT values/proc = 4913 2592
Per MPI rank memory allocation (min/avg/max) = 5.425 | 5.447 | 5.490 Mbytes
Step Temp Atoms Density TotEng PotEng KinEng E_coul E_vdwl E_long Enthalpy Press 
   10900     0.983209     5202     0.752298 -15803.720738 -23474.228609  7670.507871   -60.386407 -23104.598253  -309.243949 -9016.530879     0.981544 
Loop time of 2.95733e-06 on 27 procs for 0 steps with 5202 atoms

group widom_test         delete
group noneq_run          delete
group noneq_run_rigid    delete
reset_timestep 10800

group   solvent delete
group   water   delete
group   ions    delete
group   wall    delete
group   flying  delete
group   eq_run  delete
        
log logfile_hneqMDMC.2
