
group   solvent type 1
5000 atoms in group solvent
group   water   empty
0 atoms in group water
group   ions    type 2 3
202 atoms in group ions
group   wall    type 4 5
0 atoms in group wall
group   flying  type 6 7 8
0 atoms in group flying
group   eq_run  union solvent ions flying
5202 atoms in group eq_run
            
######################################################################
pair_style   lj/cut/coul/long 2.500000 3.500000
kspace_style pppm 0.0001

# LJ (neq? False)
# real lj particles
pair_coeff  * *         1.  1.  2.5   # solvent + ions
pair_coeff  4*5 4*5     0   0   2.5   # wall atoms

        
pair_modify  tail no shift yes mix arithmetic # LB mixing rule
neigh_modify delay 2 every 1 check yes page 500000 one 50000
######################################################################
timestep 0.005000
thermo 2000
fix  eqmd   eq_run nvt temp 1.000000 1.000000 0.500000
run 400 # (neq? False) MD run
PPPM initialization ...
  using 12-bit tables for long-range coulomb (../kspace.cpp:340)
  G vector (1/distance) = 0.80673798
  grid = 36 36 36
  stencil order = 5
  estimated absolute RMS force accuracy = 8.2278886e-05
  estimated relative force accuracy = 8.2278886e-05
  using single precision KISS FFT
  3d grid and FFT values/proc = 4913 2592
Per MPI rank memory allocation (min/avg/max) = 5.425 | 5.447 | 5.490 Mbytes
Step Temp Atoms Density TotEng PotEng KinEng E_coul E_vdwl E_long Enthalpy Press 
   11600     0.994067     5202     0.752298 -15628.627767 -23383.838987  7755.211220   -61.774267 -23012.855386  -309.209334 -8358.242709     1.051422 
   12000     1.003396     5202     0.752298 -15683.392747 -23511.390193  7827.997446   -70.464708 -23124.409394  -316.516091 -9043.762814     0.960204 
Loop time of 1.18835 on 27 procs for 400 steps with 5202 atoms

Performance: 145411.276 tau/day, 336.600 timesteps/s
92.3% CPU use with 27 MPI tasks x no OpenMP threads

MPI task timing breakdown:
Section |  min time  |  avg time  |  max time  |%varavg| %total
---------------------------------------------------------------
Pair    | 0.22993    | 0.37596    | 0.44188    |  11.0 | 31.64
Kspace  | 0.63145    | 0.69825    | 0.84014    |   7.9 | 58.76
Neigh   | 0.032025   | 0.046779   | 0.054012   |   3.1 |  3.94
Comm    | 0.048863   | 0.055572   | 0.07309    |   3.4 |  4.68
Output  | 5.1032e-05 | 5.7336e-05 | 0.00018018 |   0.0 |  0.00
Modify  | 0.0058947  | 0.0076888  | 0.010698   |   1.5 |  0.65
Other   |            | 0.004054   |            |       |  0.34

Nlocal:        192.667 ave         203 max         179 min
Histogram: 1 1 2 1 3 7 4 4 1 3
Nghost:        1846.33 ave        1872 max        1830 min
Histogram: 2 4 5 3 5 4 2 1 0 1
Neighs:        16523.6 ave       17809 max       14963 min
Histogram: 3 0 1 1 7 2 7 1 3 2

Total # of neighbors = 446137
Ave neighs/atom = 85.762591
Neighbor list builds = 55
Dangerous builds = 0
unfix    eqmd

group   solvent type 1
5000 atoms in group solvent
group   water   empty
0 atoms in group water
group   ions    type 2 3
202 atoms in group ions
group   wall    type 4 5
0 atoms in group wall
group   flying  type 6 7 8
0 atoms in group flying
group   eq_run  union solvent ions flying
5202 atoms in group eq_run
            
######################################################################
pair_style   lj/cut/coul/long 2.500000 3.500000
kspace_style pppm 0.0001

# LJ (neq? False)
# real lj particles
pair_coeff  * *         1.  1.  2.5   # solvent + ions
pair_coeff  4*5 4*5     0   0   2.5   # wall atoms

        
pair_modify  tail no shift yes mix arithmetic # LB mixing rule
neigh_modify delay 2 every 1 check yes page 500000 one 50000
######################################################################
# shake is off; should be a dummy run
timestep 0.005000
thermo 2000
fix  eqmd   eq_run nvt temp 1.000000 1.000000 0.500000
run 0 # (neq? False) MD run
PPPM initialization ...
  using 12-bit tables for long-range coulomb (../kspace.cpp:340)
  G vector (1/distance) = 0.80673798
  grid = 36 36 36
  stencil order = 5
  estimated absolute RMS force accuracy = 8.2278886e-05
  estimated relative force accuracy = 8.2278886e-05
  using single precision KISS FFT
  3d grid and FFT values/proc = 4913 2592
Per MPI rank memory allocation (min/avg/max) = 5.425 | 5.448 | 5.490 Mbytes
Step Temp Atoms Density TotEng PotEng KinEng E_coul E_vdwl E_long Enthalpy Press 
   12000     1.003396     5202     0.752298 -15683.392747 -23511.390193  7827.997446   -70.464708 -23124.409394  -316.516091 -9043.762815     0.960204 
Loop time of 2.93567e-06 on 27 procs for 0 steps with 5202 atoms

133.7% CPU use with 27 MPI tasks x no OpenMP threads

MPI task timing breakdown:
Section |  min time  |  avg time  |  max time  |%varavg| %total
---------------------------------------------------------------
Pair    | 0          | 0          | 0          |   0.0 |  0.00
Kspace  | 0          | 0          | 0          |   0.0 |  0.00
Neigh   | 0          | 0          | 0          |   0.0 |  0.00
Comm    | 0          | 0          | 0          |   0.0 |  0.00
Output  | 0          | 0          | 0          |   0.0 |  0.00
Modify  | 0          | 0          | 0          |   0.0 |  0.00
Other   |            | 2.936e-06  |            |       |100.00

Nlocal:        192.667 ave         207 max         179 min
Histogram: 1 1 4 1 6 6 5 2 0 1
Nghost:        1847.07 ave        1869 max        1832 min
Histogram: 2 5 2 6 4 2 1 3 0 2
Neighs:        16527.7 ave       18097 max       14929 min
Histogram: 2 1 2 2 6 5 3 4 1 1

Total # of neighbors = 446249
Ave neighs/atom = 85.784121
Neighbor list builds = 0
Dangerous builds = 0
unfix    eqmd
#chosen_cation deletion_move 1.300521 -6.162740 4.980863 # select_molecule
#chosen_anion deletion_move 1.152480 -5.235272 5.258157 # select_molecule
# selected_velocity_salt 5100 cation vel -0.343081 0.822419 0.375329
# selected_velocity_salt 5145 anion vel 0.083368 0.714462 -1.165633
group widom_test id  5100 5145 # select_molecule
2 atoms in group widom_test
set atom 5100 type 7
Setting atom values ...
  1 settings made for type
set atom 5145 type 8
Setting atom values ...
  1 settings made for type
run 0 post no # done selecting a flying molecule
PPPM initialization ...
  using 12-bit tables for long-range coulomb (../kspace.cpp:340)
  G vector (1/distance) = 0.80673798
  grid = 36 36 36
  stencil order = 5
  estimated absolute RMS force accuracy = 8.2278886e-05
  estimated relative force accuracy = 8.2278886e-05
  using single precision KISS FFT
  3d grid and FFT values/proc = 4913 2592
Per MPI rank memory allocation (min/avg/max) = 5.425 | 5.448 | 5.490 Mbytes
Step Temp Atoms Density TotEng PotEng KinEng E_coul E_vdwl E_long Enthalpy Press 
   12000     1.003396     5202     0.752298 -15683.392747 -23511.390193  7827.997446   -70.464708 -23124.409394  -316.516091 -9043.762815     0.960204 
Loop time of 3.54419e-06 on 27 procs for 0 steps with 5202 atoms

group noneq_run_rigid    intersect   all         water               # select_salt no selection
0 atoms in group noneq_run_rigid
group noneq_run_pre      subtract    all         noneq_run_rigid     # select_salt no selection
5202 atoms in group noneq_run_pre
group noneq_run          subtract    noneq_run_pre   widom_test      # select_salt no selection
5200 atoms in group noneq_run
group noneq_run_pre      delete
run 0 post no # mom rev random number
PPPM initialization ...
  using 12-bit tables for long-range coulomb (../kspace.cpp:340)
  G vector (1/distance) = 0.80673798
  grid = 36 36 36
  stencil order = 5
  estimated absolute RMS force accuracy = 8.2278886e-05
  estimated relative force accuracy = 8.2278886e-05
  using single precision KISS FFT
  3d grid and FFT values/proc = 4913 2592
Per MPI rank memory allocation (min/avg/max) = 5.425 | 5.448 | 5.490 Mbytes
Step Temp Atoms Density TotEng PotEng KinEng E_coul E_vdwl E_long Enthalpy Press 
   12000     1.003396     5202     0.752298 -15683.392747 -23511.390193  7827.997446   -70.464708 -23124.409394  -316.516091 -9043.762815     0.960204 
Loop time of 2.87826e-06 on 27 procs for 0 steps with 5202 atoms

######################################################################
pair_style   lj/cut/coul/long/neq 2.500000 3.500000 12000 100 1.000000 5 0 0 1.000000 1.000000 11 1.000000
kspace_style pppm 0.0001

# LJ (neq? True)
# real lj particles
pair_coeff  * *         1.  1.  2.5   # solvent + ions
pair_coeff  4*5 4*5     0   0   2.5   # wall atoms

        
pair_modify  tail no shift yes mix arithmetic # LB mixing rule
neigh_modify delay 2 every 1 check yes page 500000 one 50000
######################################################################
timestep 0.010000
fix  eqmd  noneq_run           nve                 # nve for non-rigid
run 100 # (neq? True) MD run
PPPM initialization ...
  using 12-bit tables for long-range coulomb (../kspace.cpp:340)
  G vector (1/distance) = 0.80673798
  grid = 36 36 36
  stencil order = 5
  estimated absolute RMS force accuracy = 8.2278886e-05
  estimated relative force accuracy = 8.2278886e-05
  using single precision KISS FFT
  3d grid and FFT values/proc = 4913 2592
Neighbor list info ...
  update every 1 steps, delay 2 steps, check yes
  max neighbors/atom: 50000, page size: 500000
  master list distance cutoff = 3.8
  ghost atom cutoff = 3.8
  binsize = 1.9, bins = 11 11 11
  1 neighbor lists, perpetual/occasional/extra = 1 0 0
  (1) pair lj/cut/coul/long/neq, perpetual
      attributes: half, newton on
      pair build: half/bin/atomonly/newton
      stencil: half/bin/3d
      bin: standard
Per MPI rank memory allocation (min/avg/max) = 5.425 | 5.447 | 5.490 Mbytes
Step Temp Atoms Density TotEng PotEng KinEng E_coul E_vdwl E_long Enthalpy Press 
   12000     1.003396     5202     0.752298 -15683.392747 -23511.390193  7827.997446   -70.464708 -23124.409394  -316.516091 -9043.762815     0.960204 
   12100     0.994687     5202     0.752298 -15683.640363 -23443.690826  7760.050463   -67.694188 -23056.975200  -319.021437 -8368.778817     1.057854 
Loop time of 0.309989 on 27 procs for 100 steps with 5202 atoms

Performance: 278719.725 tau/day, 322.592 timesteps/s
92.9% CPU use with 27 MPI tasks x no OpenMP threads

MPI task timing breakdown:
Section |  min time  |  avg time  |  max time  |%varavg| %total
---------------------------------------------------------------
Pair    | 0.059841   | 0.095735   | 0.11383    |   5.4 | 30.88
Kspace  | 0.15527    | 0.1756     | 0.21172    |   4.1 | 56.65
Neigh   | 0.014696   | 0.020964   | 0.024588   |   1.9 |  6.76
Comm    | 0.013845   | 0.015513   | 0.019973   |   1.6 |  5.00
Output  | 5.2896e-05 | 6.2578e-05 | 0.0001859  |   0.0 |  0.02
Modify  | 0.00032508 | 0.00051786 | 0.00065062 |   0.0 |  0.17
Other   |            | 0.0016     |            |       |  0.52

Nlocal:        192.667 ave         203 max         181 min
Histogram: 2 1 2 0 4 8 2 6 0 2
Nghost:        1849.63 ave        1873 max        1817 min
Histogram: 1 0 2 3 3 4 7 4 1 2
Neighs:        16527.2 ave       17534 max       15422 min
Histogram: 2 1 2 5 3 3 3 2 4 2

Total # of neighbors = 446235
Ave neighs/atom = 85.781430
Neighbor list builds = 25
Dangerous builds = 0
unfix    eqmd

group   solvent type 1
5000 atoms in group solvent
group   water   empty
0 atoms in group water
group   ions    type 2 3
202 atoms in group ions
group   wall    type 4 5
0 atoms in group wall
group   flying  type 6 7 8
2 atoms in group flying
group   eq_run  union solvent ions flying
5202 atoms in group eq_run
            
######################################################################
pair_style   lj/cut/coul/long 2.500000 3.500000
kspace_style pppm 0.0001

# LJ (neq? False)
# real lj particles
pair_coeff  * *         1.  1.  2.5   # solvent + ions
pair_coeff  4*5 4*5     0   0   2.5   # wall atoms

        
pair_modify  tail no shift yes mix arithmetic # LB mixing rule
neigh_modify delay 2 every 1 check yes page 500000 one 50000
######################################################################
# dealing with ideal flying particles: force field=simple_lj

# Non-interacting flying lj molecule (trial deletion)
# real lj particles
pair_coeff  * *         1.  1.  2.5   # solvent + ions
pair_coeff  4*5 4*5     0   0   2.5   # wall atoms
# flying particles
pair_coeff  * 6         0   0   2.5   # flying solvent  non-interacting
pair_coeff  * 7         0   0   2.5   # flying cation   non-interacting
pair_coeff  * 8         0   0   2.5   # flying anion    non-interacting

# flying solvetn or ions
set type 6  charge 0.                       # non-interacting
Setting atom values ...
  0 settings made for charge
set type 7  charge 0.                       # non-interacting
Setting atom values ...
  1 settings made for charge
set type 8  charge 0.                       # non-interacting
Setting atom values ...
  1 settings made for charge
        
run 0 post no # making flying moelcule non-interacting
PPPM initialization ...
  using 12-bit tables for long-range coulomb (../kspace.cpp:340)
  G vector (1/distance) = 0.80656374
  grid = 36 36 36
  stencil order = 5
  estimated absolute RMS force accuracy = 8.1571722e-05
  estimated relative force accuracy = 8.1571722e-05
  using single precision KISS FFT
  3d grid and FFT values/proc = 4913 2592
Neighbor list info ...
  update every 1 steps, delay 2 steps, check yes
  max neighbors/atom: 50000, page size: 500000
  master list distance cutoff = 3.8
  ghost atom cutoff = 3.8
  binsize = 1.9, bins = 11 11 11
  1 neighbor lists, perpetual/occasional/extra = 1 0 0
  (1) pair lj/cut/coul/long, perpetual
      attributes: half, newton on
      pair build: half/bin/atomonly/newton
      stencil: half/bin/3d
      bin: standard
Per MPI rank memory allocation (min/avg/max) = 5.425 | 5.447 | 5.490 Mbytes
Step Temp Atoms Density TotEng PotEng KinEng E_coul E_vdwl E_long Enthalpy Press 
   12100     0.994687     5202     0.752298 -15670.482806 -23430.533269  7760.050463   -67.535547 -23048.427669  -314.570052 -8356.656295     1.057705 
Loop time of 2.7053e-06 on 27 procs for 0 steps with 5202 atoms

# done post_propagate after NEMD
# selected salt 5100/5145
#The center of bimodal dist. on a positive side=0.800000
set type 7 type 2
Setting atom values ...
  1 settings made for type
set type 8 type 3
Setting atom values ...
  1 settings made for type
run 0 post no # lj type change (reject_delete)
PPPM initialization ...
  using 12-bit tables for long-range coulomb (../kspace.cpp:340)
  G vector (1/distance) = 0.80656374
  grid = 36 36 36
  stencil order = 5
  estimated absolute RMS force accuracy = 8.1571722e-05
  estimated relative force accuracy = 8.1571722e-05
  using single precision KISS FFT
  3d grid and FFT values/proc = 4913 2592
Per MPI rank memory allocation (min/avg/max) = 5.425 | 5.447 | 5.490 Mbytes
Step Temp Atoms Density TotEng PotEng KinEng E_coul E_vdwl E_long Enthalpy Press 
   12100     0.994687     5202     0.752298 -12942.643532 -20702.693995  7760.050463   -67.535547 -20320.588395  -314.570052  5765.016040     2.705448 
Loop time of 2.99696e-06 on 27 procs for 0 steps with 5202 atoms

set atom 5100 charge 1.000000
Setting atom values ...
  1 settings made for charge
set atom 5145 charge -1.000000
Setting atom values ...
  1 settings made for charge
run 0 post no # charge return (reject_delete)
PPPM initialization ...
  using 12-bit tables for long-range coulomb (../kspace.cpp:340)
  G vector (1/distance) = 0.80673798
  grid = 36 36 36
  stencil order = 5
  estimated absolute RMS force accuracy = 8.2278886e-05
  estimated relative force accuracy = 8.2278886e-05
  using single precision KISS FFT
  3d grid and FFT values/proc = 4913 2592
Per MPI rank memory allocation (min/avg/max) = 5.425 | 5.447 | 5.490 Mbytes
Step Temp Atoms Density TotEng PotEng KinEng E_coul E_vdwl E_long Enthalpy Press 
   12100     0.994687     5202     0.752298 -12948.471959 -20708.522422  7760.050463   -68.912589 -20320.588395  -319.021437  5757.244558     2.705167 
Loop time of 3.07122e-06 on 27 procs for 0 steps with 5202 atoms

run 0 post no # return_position back to old
PPPM initialization ...
  using 12-bit tables for long-range coulomb (../kspace.cpp:340)
  G vector (1/distance) = 0.80673798
  grid = 36 36 36
  stencil order = 5
  estimated absolute RMS force accuracy = 8.2278886e-05
  estimated relative force accuracy = 8.2278886e-05
  using single precision KISS FFT
  3d grid and FFT values/proc = 4913 2592
Per MPI rank memory allocation (min/avg/max) = 5.425 | 5.447 | 5.490 Mbytes
Step Temp Atoms Density TotEng PotEng KinEng E_coul E_vdwl E_long Enthalpy Press 
   12100     1.003396     5202     0.752298 -15683.392747 -23511.390193  7827.997446   -70.464708 -23124.409394  -316.516091 -9043.762814     0.960204 
Loop time of 2.58685e-06 on 27 procs for 0 steps with 5202 atoms

group widom_test         delete
group noneq_run          delete
group noneq_run_rigid    delete
reset_timestep 12000

group   solvent delete
group   water   delete
group   ions    delete
group   wall    delete
group   flying  delete
group   eq_run  delete
        

group   solvent type 1
5000 atoms in group solvent
group   water   empty
0 atoms in group water
group   ions    type 2 3
202 atoms in group ions
group   wall    type 4 5
0 atoms in group wall
group   flying  type 6 7 8
0 atoms in group flying
group   eq_run  union solvent ions flying
5202 atoms in group eq_run
            
######################################################################
pair_style   lj/cut/coul/long 2.500000 3.500000
kspace_style pppm 0.0001

# LJ (neq? False)
# real lj particles
pair_coeff  * *         1.  1.  2.5   # solvent + ions
pair_coeff  4*5 4*5     0   0   2.5   # wall atoms

        
pair_modify  tail no shift yes mix arithmetic # LB mixing rule
neigh_modify delay 2 every 1 check yes page 500000 one 50000
######################################################################
# shake is off; should be a dummy run
timestep 0.005000
thermo 2000
fix  eqmd   eq_run nvt temp 1.000000 1.000000 0.500000
run 0 # (neq? False) MD run
PPPM initialization ...
  using 12-bit tables for long-range coulomb (../kspace.cpp:340)
  G vector (1/distance) = 0.80673798
  grid = 36 36 36
  stencil order = 5
  estimated absolute RMS force accuracy = 8.2278886e-05
  estimated relative force accuracy = 8.2278886e-05
  using single precision KISS FFT
  3d grid and FFT values/proc = 4913 2592
Per MPI rank memory allocation (min/avg/max) = 5.425 | 5.447 | 5.490 Mbytes
Step Temp Atoms Density TotEng PotEng KinEng E_coul E_vdwl E_long Enthalpy Press 
   12000     1.003396     5202     0.752298 -15683.392747 -23511.390193  7827.997446   -70.464708 -23124.409394  -316.516091 -9043.762814     0.960204 
Loop time of 3.18104e-06 on 27 procs for 0 steps with 5202 atoms

4.7% CPU use with 27 MPI tasks x no OpenMP threads

MPI task timing breakdown:
Section |  min time  |  avg time  |  max time  |%varavg| %total
---------------------------------------------------------------
Pair    | 0          | 0          | 0          |   0.0 |  0.00
Kspace  | 0          | 0          | 0          |   0.0 |  0.00
Neigh   | 0          | 0          | 0          |   0.0 |  0.00
Comm    | 0          | 0          | 0          |   0.0 |  0.00
Output  | 0          | 0          | 0          |   0.0 |  0.00
Modify  | 0          | 0          | 0          |   0.0 |  0.00
Other   |            | 3.181e-06  |            |       |100.00

Nlocal:        192.667 ave         207 max         179 min
Histogram: 1 1 4 1 6 6 5 2 0 1
Nghost:        1847.07 ave        1869 max        1832 min
Histogram: 2 5 2 6 4 2 1 3 0 2
Neighs:        16527.7 ave       18097 max       14929 min
Histogram: 2 1 2 2 6 5 3 4 1 1

Total # of neighbors = 446249
Ave neighs/atom = 85.784121
Neighbor list builds = 0
Dangerous builds = 0
unfix    eqmd
#chosen_cation deletion_move 1.811121 -8.730248 8.011959 # select_molecule
#chosen_anion deletion_move 1.366370 9.308470 7.898151 # select_molecule
# selected_velocity_salt 5097 cation vel -1.706611 1.737552 0.876165
# selected_velocity_salt 5153 anion vel 3.378100 -1.091827 -0.518225
group widom_test id  5097 5153 # select_molecule
2 atoms in group widom_test
set atom 5097 type 7
Setting atom values ...
  1 settings made for type
set atom 5153 type 8
Setting atom values ...
  1 settings made for type
run 0 post no # done selecting a flying molecule
PPPM initialization ...
  using 12-bit tables for long-range coulomb (../kspace.cpp:340)
  G vector (1/distance) = 0.80673798
  grid = 36 36 36
  stencil order = 5
  estimated absolute RMS force accuracy = 8.2278886e-05
  estimated relative force accuracy = 8.2278886e-05
  using single precision KISS FFT
  3d grid and FFT values/proc = 4913 2592
Per MPI rank memory allocation (min/avg/max) = 5.425 | 5.447 | 5.490 Mbytes
Step Temp Atoms Density TotEng PotEng KinEng E_coul E_vdwl E_long Enthalpy Press 
   12000     1.003396     5202     0.752298 -15683.392747 -23511.390193  7827.997446   -70.464708 -23124.409394  -316.516091 -9043.762814     0.960204 
Loop time of 3.06407e-06 on 27 procs for 0 steps with 5202 atoms

group noneq_run_rigid    intersect   all         water               # select_salt no selection
0 atoms in group noneq_run_rigid
group noneq_run_pre      subtract    all         noneq_run_rigid     # select_salt no selection
5202 atoms in group noneq_run_pre
group noneq_run          subtract    noneq_run_pre   widom_test      # select_salt no selection
5200 atoms in group noneq_run
group noneq_run_pre      delete
run 0 post no # mom rev random number
PPPM initialization ...
  using 12-bit tables for long-range coulomb (../kspace.cpp:340)
  G vector (1/distance) = 0.80673798
  grid = 36 36 36
  stencil order = 5
  estimated absolute RMS force accuracy = 8.2278886e-05
  estimated relative force accuracy = 8.2278886e-05
  using single precision KISS FFT
  3d grid and FFT values/proc = 4913 2592
Per MPI rank memory allocation (min/avg/max) = 5.425 | 5.447 | 5.490 Mbytes
Step Temp Atoms Density TotEng PotEng KinEng E_coul E_vdwl E_long Enthalpy Press 
   12000     1.003396     5202     0.752298 -15683.392747 -23511.390193  7827.997446   -70.464708 -23124.409394  -316.516091 -9043.762814     0.960204 
Loop time of 2.80737e-06 on 27 procs for 0 steps with 5202 atoms

######################################################################
pair_style   lj/cut/coul/long/neq 2.500000 3.500000 12000 100 1.000000 5 0 0 1.000000 1.000000 11 1.000000
kspace_style pppm 0.0001

# LJ (neq? True)
# real lj particles
pair_coeff  * *         1.  1.  2.5   # solvent + ions
pair_coeff  4*5 4*5     0   0   2.5   # wall atoms

        
pair_modify  tail no shift yes mix arithmetic # LB mixing rule
neigh_modify delay 2 every 1 check yes page 500000 one 50000
######################################################################
timestep 0.010000
fix  eqmd  noneq_run           nve                 # nve for non-rigid
run 100 # (neq? True) MD run
PPPM initialization ...
  using 12-bit tables for long-range coulomb (../kspace.cpp:340)
  G vector (1/distance) = 0.80673798
  grid = 36 36 36
  stencil order = 5
  estimated absolute RMS force accuracy = 8.2278886e-05
  estimated relative force accuracy = 8.2278886e-05
  using single precision KISS FFT
  3d grid and FFT values/proc = 4913 2592
Neighbor list info ...
  update every 1 steps, delay 2 steps, check yes
  max neighbors/atom: 50000, page size: 500000
  master list distance cutoff = 3.8
  ghost atom cutoff = 3.8
  binsize = 1.9, bins = 11 11 11
  1 neighbor lists, perpetual/occasional/extra = 1 0 0
  (1) pair lj/cut/coul/long/neq, perpetual
      attributes: half, newton on
      pair build: half/bin/atomonly/newton
      stencil: half/bin/3d
      bin: standard
Per MPI rank memory allocation (min/avg/max) = 5.425 | 5.447 | 5.490 Mbytes
Step Temp Atoms Density TotEng PotEng KinEng E_coul E_vdwl E_long Enthalpy Press 
   12000     1.003396     5202     0.752298 -15683.392747 -23511.390193  7827.997446   -70.464708 -23124.409394  -316.516091 -9043.762814     0.960204 
   12100     0.999894     5202     0.752298 -15682.976691 -23483.651758  7800.675066   -69.620262 -23094.913646  -319.117850 -8548.958832     1.031701 
Loop time of 0.306338 on 27 procs for 100 steps with 5202 atoms

Performance: 282040.967 tau/day, 326.436 timesteps/s
93.2% CPU use with 27 MPI tasks x no OpenMP threads

MPI task timing breakdown:
Section |  min time  |  avg time  |  max time  |%varavg| %total
---------------------------------------------------------------
Pair    | 0.060583   | 0.09562    | 0.11091    |   5.3 | 31.21
Kspace  | 0.15669    | 0.17202    | 0.20838    |   4.2 | 56.15
Neigh   | 0.014703   | 0.021099   | 0.024809   |   2.1 |  6.89
Comm    | 0.013805   | 0.015433   | 0.019802   |   1.6 |  5.04
Output  | 5.178e-05  | 6.2339e-05 | 0.00018897 |   0.0 |  0.02
Modify  | 0.0003556  | 0.00053677 | 0.00065052 |   0.0 |  0.18
Other   |            | 0.001564   |            |       |  0.51

Nlocal:        192.667 ave         204 max         181 min
Histogram: 3 0 1 3 6 3 8 1 0 2
Nghost:        1851.19 ave        1870 max        1822 min
Histogram: 1 0 3 2 2 4 3 6 4 2
Neighs:        16525.4 ave       17598 max       15453 min
Histogram: 3 2 2 3 5 1 5 2 1 3

Total # of neighbors = 446187
Ave neighs/atom = 85.772203
Neighbor list builds = 25
Dangerous builds = 0
unfix    eqmd

group   solvent type 1
5000 atoms in group solvent
group   water   empty
0 atoms in group water
group   ions    type 2 3
202 atoms in group ions
group   wall    type 4 5
0 atoms in group wall
group   flying  type 6 7 8
2 atoms in group flying
group   eq_run  union solvent ions flying
5202 atoms in group eq_run
            
######################################################################
pair_style   lj/cut/coul/long 2.500000 3.500000
kspace_style pppm 0.0001

# LJ (neq? False)
# real lj particles
pair_coeff  * *         1.  1.  2.5   # solvent + ions
pair_coeff  4*5 4*5     0   0   2.5   # wall atoms

        
pair_modify  tail no shift yes mix arithmetic # LB mixing rule
neigh_modify delay 2 every 1 check yes page 500000 one 50000
######################################################################
# dealing with ideal flying particles: force field=simple_lj

# Non-interacting flying lj molecule (trial deletion)
# real lj particles
pair_coeff  * *         1.  1.  2.5   # solvent + ions
pair_coeff  4*5 4*5     0   0   2.5   # wall atoms
# flying particles
pair_coeff  * 6         0   0   2.5   # flying solvent  non-interacting
pair_coeff  * 7         0   0   2.5   # flying cation   non-interacting
pair_coeff  * 8         0   0   2.5   # flying anion    non-interacting

# flying solvetn or ions
set type 6  charge 0.                       # non-interacting
Setting atom values ...
  0 settings made for charge
set type 7  charge 0.                       # non-interacting
Setting atom values ...
  1 settings made for charge
set type 8  charge 0.                       # non-interacting
Setting atom values ...
  1 settings made for charge
        
run 0 post no # making flying moelcule non-interacting
PPPM initialization ...
  using 12-bit tables for long-range coulomb (../kspace.cpp:340)
  G vector (1/distance) = 0.80656374
  grid = 36 36 36
  stencil order = 5
  estimated absolute RMS force accuracy = 8.1571722e-05
  estimated relative force accuracy = 8.1571722e-05
  using single precision KISS FFT
  3d grid and FFT values/proc = 4913 2592
Neighbor list info ...
  update every 1 steps, delay 2 steps, check yes
  max neighbors/atom: 50000, page size: 500000
  master list distance cutoff = 3.8
  ghost atom cutoff = 3.8
  binsize = 1.9, bins = 11 11 11
  1 neighbor lists, perpetual/occasional/extra = 1 0 0
  (1) pair lj/cut/coul/long, perpetual
      attributes: half, newton on
      pair build: half/bin/atomonly/newton
      stencil: half/bin/3d
      bin: standard
Per MPI rank memory allocation (min/avg/max) = 5.425 | 5.447 | 5.490 Mbytes
Step Temp Atoms Density TotEng PotEng KinEng E_coul E_vdwl E_long Enthalpy Press 
   12100     0.999894     5202     0.752298 -15668.675198 -23469.350264  7800.675066   -69.530663 -23084.749674  -315.069927 -8524.857140     1.033119 
Loop time of 2.92467e-06 on 27 procs for 0 steps with 5202 atoms

# done post_propagate after NEMD
# selected salt 5097/5153
#The center of bimodal dist. on a positive side=0.800000
set type 7 type 2
Setting atom values ...
  1 settings made for type
set type 8 type 3
Setting atom values ...
  1 settings made for type
run 0 post no # lj type change (reject_delete)
PPPM initialization ...
  using 12-bit tables for long-range coulomb (../kspace.cpp:340)
  G vector (1/distance) = 0.80656374
  grid = 36 36 36
  stencil order = 5
  estimated absolute RMS force accuracy = 8.1571722e-05
  estimated relative force accuracy = 8.1571722e-05
  using single precision KISS FFT
  3d grid and FFT values/proc = 4913 2592
Per MPI rank memory allocation (min/avg/max) = 5.425 | 5.447 | 5.490 Mbytes
Step Temp Atoms Density TotEng PotEng KinEng E_coul E_vdwl E_long Enthalpy Press 
   12100     0.999894     5202     0.752298  8205.409708   404.734642  7800.675066   -69.530663   789.335232  -315.069927 111878.642707    14.992927 
Loop time of 2.73589e-06 on 27 procs for 0 steps with 5202 atoms

set atom 5097 charge 1.000000
Setting atom values ...
  1 settings made for charge
set atom 5153 charge -1.000000
Setting atom values ...
  1 settings made for charge
run 0 post no # charge return (reject_delete)
PPPM initialization ...
  using 12-bit tables for long-range coulomb (../kspace.cpp:340)
  G vector (1/distance) = 0.80673798
  grid = 36 36 36
  stencil order = 5
  estimated absolute RMS force accuracy = 8.2278886e-05
  estimated relative force accuracy = 8.2278886e-05
  using single precision KISS FFT
  3d grid and FFT values/proc = 4913 2592
Per MPI rank memory allocation (min/avg/max) = 5.425 | 5.447 | 5.490 Mbytes
Step Temp Atoms Density TotEng PotEng KinEng E_coul E_vdwl E_long Enthalpy Press 
   12100     0.999894     5202     0.752298  8200.480153   399.805086  7800.675066   -70.412296   789.335232  -319.117850 111872.071635    14.992690 
Loop time of 3.27896e-06 on 27 procs for 0 steps with 5202 atoms

run 0 post no # return_position back to old
PPPM initialization ...
  using 12-bit tables for long-range coulomb (../kspace.cpp:340)
  G vector (1/distance) = 0.80673798
  grid = 36 36 36
  stencil order = 5
  estimated absolute RMS force accuracy = 8.2278886e-05
  estimated relative force accuracy = 8.2278886e-05
  using single precision KISS FFT
  3d grid and FFT values/proc = 4913 2592
Per MPI rank memory allocation (min/avg/max) = 5.425 | 5.447 | 5.490 Mbytes
Step Temp Atoms Density TotEng PotEng KinEng E_coul E_vdwl E_long Enthalpy Press 
   12100     1.003396     5202     0.752298 -15683.392747 -23511.390193  7827.997446   -70.464708 -23124.409394  -316.516091 -9043.762814     0.960204 
Loop time of 3.0707e-06 on 27 procs for 0 steps with 5202 atoms

group widom_test         delete
group noneq_run          delete
group noneq_run_rigid    delete
reset_timestep 12000

group   solvent delete
group   water   delete
group   ions    delete
group   wall    delete
group   flying  delete
group   eq_run  delete
        

group   solvent type 1
5000 atoms in group solvent
group   water   empty
0 atoms in group water
group   ions    type 2 3
202 atoms in group ions
group   wall    type 4 5
0 atoms in group wall
group   flying  type 6 7 8
0 atoms in group flying
group   eq_run  union solvent ions flying
5202 atoms in group eq_run
            
######################################################################
pair_style   lj/cut/coul/long 2.500000 3.500000
kspace_style pppm 0.0001

# LJ (neq? False)
# real lj particles
pair_coeff  * *         1.  1.  2.5   # solvent + ions
pair_coeff  4*5 4*5     0   0   2.5   # wall atoms

        
pair_modify  tail no shift yes mix arithmetic # LB mixing rule
neigh_modify delay 2 every 1 check yes page 500000 one 50000
######################################################################
# shake is off; should be a dummy run
timestep 0.005000
thermo 2000
fix  eqmd   eq_run nvt temp 1.000000 1.000000 0.500000
run 0 # (neq? False) MD run
PPPM initialization ...
  using 12-bit tables for long-range coulomb (../kspace.cpp:340)
  G vector (1/distance) = 0.80673798
  grid = 36 36 36
  stencil order = 5
  estimated absolute RMS force accuracy = 8.2278886e-05
  estimated relative force accuracy = 8.2278886e-05
  using single precision KISS FFT
  3d grid and FFT values/proc = 4913 2592
Per MPI rank memory allocation (min/avg/max) = 5.425 | 5.447 | 5.490 Mbytes
Step Temp Atoms Density TotEng PotEng KinEng E_coul E_vdwl E_long Enthalpy Press 
   12000     1.003396     5202     0.752298 -15683.392747 -23511.390193  7827.997446   -70.464708 -23124.409394  -316.516091 -9043.762814     0.960204 
Loop time of 3.64526e-06 on 27 procs for 0 steps with 5202 atoms

124.0% CPU use with 27 MPI tasks x no OpenMP threads

MPI task timing breakdown:
Section |  min time  |  avg time  |  max time  |%varavg| %total
---------------------------------------------------------------
Pair    | 0          | 0          | 0          |   0.0 |  0.00
Kspace  | 0          | 0          | 0          |   0.0 |  0.00
Neigh   | 0          | 0          | 0          |   0.0 |  0.00
Comm    | 0          | 0          | 0          |   0.0 |  0.00
Output  | 0          | 0          | 0          |   0.0 |  0.00
Modify  | 0          | 0          | 0          |   0.0 |  0.00
Other   |            | 3.645e-06  |            |       |100.00

Nlocal:        192.667 ave         207 max         179 min
Histogram: 1 1 4 1 6 6 5 2 0 1
Nghost:        1847.07 ave        1869 max        1832 min
Histogram: 2 5 2 6 4 2 1 3 0 2
Neighs:        16527.7 ave       18097 max       14929 min
Histogram: 2 1 2 2 6 5 3 4 1 1

Total # of neighbors = 446249
Ave neighs/atom = 85.784121
Neighbor list builds = 0
Dangerous builds = 0
unfix    eqmd
#chosen_cation deletion_move 2.089944 -3.238139 -3.473995 # select_molecule
#chosen_anion deletion_move 3.038209 -2.907329 -2.809979 # select_molecule
# selected_velocity_salt 5032 cation vel -1.836578 -1.246613 -0.115637
# selected_velocity_salt 5191 anion vel 1.430664 0.672836 1.189420
group widom_test id  5032 5191 # select_molecule
2 atoms in group widom_test
set atom 5032 type 7
Setting atom values ...
  1 settings made for type
set atom 5191 type 8
Setting atom values ...
  1 settings made for type
run 0 post no # done selecting a flying molecule
PPPM initialization ...
  using 12-bit tables for long-range coulomb (../kspace.cpp:340)
  G vector (1/distance) = 0.80673798
  grid = 36 36 36
  stencil order = 5
  estimated absolute RMS force accuracy = 8.2278886e-05
  estimated relative force accuracy = 8.2278886e-05
  using single precision KISS FFT
  3d grid and FFT values/proc = 4913 2592
Per MPI rank memory allocation (min/avg/max) = 5.425 | 5.447 | 5.490 Mbytes
Step Temp Atoms Density TotEng PotEng KinEng E_coul E_vdwl E_long Enthalpy Press 
   12000     1.003396     5202     0.752298 -15683.392747 -23511.390193  7827.997446   -70.464708 -23124.409394  -316.516091 -9043.762814     0.960204 
Loop time of 2.79352e-06 on 27 procs for 0 steps with 5202 atoms

group noneq_run_rigid    intersect   all         water               # select_salt no selection
0 atoms in group noneq_run_rigid
group noneq_run_pre      subtract    all         noneq_run_rigid     # select_salt no selection
5202 atoms in group noneq_run_pre
group noneq_run          subtract    noneq_run_pre   widom_test      # select_salt no selection
5200 atoms in group noneq_run
group noneq_run_pre      delete
run 0 post no # mom rev random number
PPPM initialization ...
  using 12-bit tables for long-range coulomb (../kspace.cpp:340)
  G vector (1/distance) = 0.80673798
  grid = 36 36 36
  stencil order = 5
  estimated absolute RMS force accuracy = 8.2278886e-05
  estimated relative force accuracy = 8.2278886e-05
  using single precision KISS FFT
  3d grid and FFT values/proc = 4913 2592
Per MPI rank memory allocation (min/avg/max) = 5.425 | 5.447 | 5.490 Mbytes
Step Temp Atoms Density TotEng PotEng KinEng E_coul E_vdwl E_long Enthalpy Press 
   12000     1.003396     5202     0.752298 -15683.392747 -23511.390193  7827.997446   -70.464708 -23124.409394  -316.516091 -9043.762814     0.960204 
Loop time of 3.08078e-06 on 27 procs for 0 steps with 5202 atoms

######################################################################
pair_style   lj/cut/coul/long/neq 2.500000 3.500000 12000 100 1.000000 5 0 0 1.000000 1.000000 11 1.000000
kspace_style pppm 0.0001

# LJ (neq? True)
# real lj particles
pair_coeff  * *         1.  1.  2.5   # solvent + ions
pair_coeff  4*5 4*5     0   0   2.5   # wall atoms

        
pair_modify  tail no shift yes mix arithmetic # LB mixing rule
neigh_modify delay 2 every 1 check yes page 500000 one 50000
######################################################################
timestep 0.010000
fix  eqmd  noneq_run           nve                 # nve for non-rigid
run 100 # (neq? True) MD run
PPPM initialization ...
  using 12-bit tables for long-range coulomb (../kspace.cpp:340)
  G vector (1/distance) = 0.80673798
  grid = 36 36 36
  stencil order = 5
  estimated absolute RMS force accuracy = 8.2278886e-05
  estimated relative force accuracy = 8.2278886e-05
  using single precision KISS FFT
  3d grid and FFT values/proc = 4913 2592
Neighbor list info ...
  update every 1 steps, delay 2 steps, check yes
  max neighbors/atom: 50000, page size: 500000
  master list distance cutoff = 3.8
  ghost atom cutoff = 3.8
  binsize = 1.9, bins = 11 11 11
  1 neighbor lists, perpetual/occasional/extra = 1 0 0
  (1) pair lj/cut/coul/long/neq, perpetual
      attributes: half, newton on
      pair build: half/bin/atomonly/newton
      stencil: half/bin/3d
      bin: standard
Per MPI rank memory allocation (min/avg/max) = 5.425 | 5.447 | 5.490 Mbytes
Step Temp Atoms Density TotEng PotEng KinEng E_coul E_vdwl E_long Enthalpy Press 
   12000     1.003396     5202     0.752298 -15683.392747 -23511.390193  7827.997446   -70.464708 -23124.409394  -316.516091 -9043.762814     0.960204 
   12100     0.994897     5202     0.752298 -15678.809461 -23440.498527  7761.689066   -66.706589 -23054.609240  -319.182698 -8352.580739     1.059498 
Loop time of 0.309239 on 27 procs for 100 steps with 5202 atoms

Performance: 279395.854 tau/day, 323.375 timesteps/s
92.2% CPU use with 27 MPI tasks x no OpenMP threads

MPI task timing breakdown:
Section |  min time  |  avg time  |  max time  |%varavg| %total
---------------------------------------------------------------
Pair    | 0.061267   | 0.095171   | 0.11278    |   5.2 | 30.78
Kspace  | 0.15558    | 0.17514    | 0.21076    |   4.0 | 56.64
Neigh   | 0.014786   | 0.021231   | 0.024832   |   2.1 |  6.87
Comm    | 0.013962   | 0.015532   | 0.019791   |   1.6 |  5.02
Output  | 5.3992e-05 | 6.4175e-05 | 0.00018584 |   0.0 |  0.02
Modify  | 0.00034855 | 0.00053294 | 0.0006439  |   0.0 |  0.17
Other   |            | 0.001566   |            |       |  0.51

Nlocal:        192.667 ave         202 max         181 min
Histogram: 2 0 2 5 2 2 6 2 4 2
Nghost:        1848.41 ave        1879 max        1810 min
Histogram: 1 1 1 4 1 7 3 5 3 1
Neighs:        16534.1 ave       17476 max       15466 min
Histogram: 3 2 1 1 6 4 1 4 1 4

Total # of neighbors = 446420
Ave neighs/atom = 85.816993
Neighbor list builds = 25
Dangerous builds = 0
unfix    eqmd

group   solvent type 1
5000 atoms in group solvent
group   water   empty
0 atoms in group water
group   ions    type 2 3
202 atoms in group ions
group   wall    type 4 5
0 atoms in group wall
group   flying  type 6 7 8
2 atoms in group flying
group   eq_run  union solvent ions flying
5202 atoms in group eq_run
            
######################################################################
pair_style   lj/cut/coul/long 2.500000 3.500000
kspace_style pppm 0.0001

# LJ (neq? False)
# real lj particles
pair_coeff  * *         1.  1.  2.5   # solvent + ions
pair_coeff  4*5 4*5     0   0   2.5   # wall atoms

        
pair_modify  tail no shift yes mix arithmetic # LB mixing rule
neigh_modify delay 2 every 1 check yes page 500000 one 50000
######################################################################
# dealing with ideal flying particles: force field=simple_lj

# Non-interacting flying lj molecule (trial deletion)
# real lj particles
pair_coeff  * *         1.  1.  2.5   # solvent + ions
pair_coeff  4*5 4*5     0   0   2.5   # wall atoms
# flying particles
pair_coeff  * 6         0   0   2.5   # flying solvent  non-interacting
pair_coeff  * 7         0   0   2.5   # flying cation   non-interacting
pair_coeff  * 8         0   0   2.5   # flying anion    non-interacting

# flying solvetn or ions
set type 6  charge 0.                       # non-interacting
Setting atom values ...
  0 settings made for charge
set type 7  charge 0.                       # non-interacting
Setting atom values ...
  1 settings made for charge
set type 8  charge 0.                       # non-interacting
Setting atom values ...
  1 settings made for charge
        
run 0 post no # making flying moelcule non-interacting
PPPM initialization ...
  using 12-bit tables for long-range coulomb (../kspace.cpp:340)
  G vector (1/distance) = 0.80656374
  grid = 36 36 36
  stencil order = 5
  estimated absolute RMS force accuracy = 8.1571722e-05
  estimated relative force accuracy = 8.1571722e-05
  using single precision KISS FFT
  3d grid and FFT values/proc = 4913 2592
Neighbor list info ...
  update every 1 steps, delay 2 steps, check yes
  max neighbors/atom: 50000, page size: 500000
  master list distance cutoff = 3.8
  ghost atom cutoff = 3.8
  binsize = 1.9, bins = 11 11 11
  1 neighbor lists, perpetual/occasional/extra = 1 0 0
  (1) pair lj/cut/coul/long, perpetual
      attributes: half, newton on
      pair build: half/bin/atomonly/newton
      stencil: half/bin/3d
      bin: standard
Per MPI rank memory allocation (min/avg/max) = 5.425 | 5.447 | 5.490 Mbytes
Step Temp Atoms Density TotEng PotEng KinEng E_coul E_vdwl E_long Enthalpy Press 
   12100     0.994897     5202     0.752298 -15664.225055 -23425.914120  7761.689066   -66.415416 -23044.395384  -315.103320 -8326.790470     1.061119 
Loop time of 2.91752e-06 on 27 procs for 0 steps with 5202 atoms

# done post_propagate after NEMD
# selected salt 5032/5191
#The center of bimodal dist. on a positive side=0.800000
set type 7 type 2
Setting atom values ...
  1 settings made for type
set type 8 type 3
Setting atom values ...
  1 settings made for type
run 0 post no # lj type change (reject_delete)
PPPM initialization ...
  using 12-bit tables for long-range coulomb (../kspace.cpp:340)
  G vector (1/distance) = 0.80656374
  grid = 36 36 36
  stencil order = 5
  estimated absolute RMS force accuracy = 8.1571722e-05
  estimated relative force accuracy = 8.1571722e-05
  using single precision KISS FFT
  3d grid and FFT values/proc = 4913 2592
Per MPI rank memory allocation (min/avg/max) = 5.425 | 5.447 | 5.490 Mbytes
Step Temp Atoms Density TotEng PotEng KinEng E_coul E_vdwl E_long Enthalpy Press 
   12100     0.994897     5202     0.752298 -11153.400563 -18915.089628  7761.689066   -66.415416 -18533.570892  -315.103320 14692.984992     3.737831 
Loop time of 2.85407e-06 on 27 procs for 0 steps with 5202 atoms

set atom 5032 charge 1.000000
Setting atom values ...
  1 settings made for charge
set atom 5191 charge -1.000000
Setting atom values ...
  1 settings made for charge
run 0 post no # charge return (reject_delete)
PPPM initialization ...
  using 12-bit tables for long-range coulomb (../kspace.cpp:340)
  G vector (1/distance) = 0.80673798
  grid = 36 36 36
  stencil order = 5
  estimated absolute RMS force accuracy = 8.2278886e-05
  estimated relative force accuracy = 8.2278886e-05
  using single precision KISS FFT
  3d grid and FFT values/proc = 4913 2592
Per MPI rank memory allocation (min/avg/max) = 5.425 | 5.447 | 5.490 Mbytes
Step Temp Atoms Density TotEng PotEng KinEng E_coul E_vdwl E_long Enthalpy Press 
   12100     0.994897     5202     0.752298 -11160.637333 -18922.326398  7761.689066   -69.572809 -18533.570892  -319.182697 14683.335791     3.737482 
Loop time of 2.9157e-06 on 27 procs for 0 steps with 5202 atoms

run 0 post no # return_position back to old
PPPM initialization ...
  using 12-bit tables for long-range coulomb (../kspace.cpp:340)
  G vector (1/distance) = 0.80673798
  grid = 36 36 36
  stencil order = 5
  estimated absolute RMS force accuracy = 8.2278886e-05
  estimated relative force accuracy = 8.2278886e-05
  using single precision KISS FFT
  3d grid and FFT values/proc = 4913 2592
Per MPI rank memory allocation (min/avg/max) = 5.425 | 5.447 | 5.490 Mbytes
Step Temp Atoms Density TotEng PotEng KinEng E_coul E_vdwl E_long Enthalpy Press 
   12100     1.003396     5202     0.752298 -15683.392747 -23511.390193  7827.997446   -70.464708 -23124.409394  -316.516091 -9043.762814     0.960204 
Loop time of 2.74067e-06 on 27 procs for 0 steps with 5202 atoms

group widom_test         delete
group noneq_run          delete
group noneq_run_rigid    delete
reset_timestep 12000

group   solvent delete
group   water   delete
group   ions    delete
group   wall    delete
group   flying  delete
group   eq_run  delete
        

group   solvent type 1
5000 atoms in group solvent
group   water   empty
0 atoms in group water
group   ions    type 2 3
202 atoms in group ions
group   wall    type 4 5
0 atoms in group wall
group   flying  type 6 7 8
0 atoms in group flying
group   eq_run  union solvent ions flying
5202 atoms in group eq_run
            
######################################################################
pair_style   lj/cut/coul/long 2.500000 3.500000
kspace_style pppm 0.0001

# LJ (neq? False)
# real lj particles
pair_coeff  * *         1.  1.  2.5   # solvent + ions
pair_coeff  4*5 4*5     0   0   2.5   # wall atoms

        
pair_modify  tail no shift yes mix arithmetic # LB mixing rule
neigh_modify delay 2 every 1 check yes page 500000 one 50000
######################################################################
# shake is off; should be a dummy run
timestep 0.005000
thermo 2000
fix  eqmd   eq_run nvt temp 1.000000 1.000000 0.500000
run 0 # (neq? False) MD run
PPPM initialization ...
  using 12-bit tables for long-range coulomb (../kspace.cpp:340)
  G vector (1/distance) = 0.80673798
  grid = 36 36 36
  stencil order = 5
  estimated absolute RMS force accuracy = 8.2278886e-05
  estimated relative force accuracy = 8.2278886e-05
  using single precision KISS FFT
  3d grid and FFT values/proc = 4913 2592
Per MPI rank memory allocation (min/avg/max) = 5.425 | 5.447 | 5.490 Mbytes
Step Temp Atoms Density TotEng PotEng KinEng E_coul E_vdwl E_long Enthalpy Press 
   12000     1.003396     5202     0.752298 -15683.392747 -23511.390193  7827.997446   -70.464708 -23124.409394  -316.516091 -9043.762814     0.960204 
Loop time of 3.031e-06 on 27 procs for 0 steps with 5202 atoms

128.3% CPU use with 27 MPI tasks x no OpenMP threads

MPI task timing breakdown:
Section |  min time  |  avg time  |  max time  |%varavg| %total
---------------------------------------------------------------
Pair    | 0          | 0          | 0          |   0.0 |  0.00
Kspace  | 0          | 0          | 0          |   0.0 |  0.00
Neigh   | 0          | 0          | 0          |   0.0 |  0.00
Comm    | 0          | 0          | 0          |   0.0 |  0.00
Output  | 0          | 0          | 0          |   0.0 |  0.00
Modify  | 0          | 0          | 0          |   0.0 |  0.00
Other   |            | 3.031e-06  |            |       |100.00

Nlocal:        192.667 ave         207 max         179 min
Histogram: 1 1 4 1 6 6 5 2 0 1
Nghost:        1847.07 ave        1869 max        1832 min
Histogram: 2 5 2 6 4 2 1 3 0 2
Neighs:        16527.7 ave       18097 max       14929 min
Histogram: 2 1 2 2 6 5 3 4 1 1

Total # of neighbors = 446249
Ave neighs/atom = 85.784121
Neighbor list builds = 0
Dangerous builds = 0
unfix    eqmd
#chosen_cation deletion_move -6.689863 -1.574861 9.425183 # select_molecule
#chosen_anion deletion_move -5.890705 -1.818529 8.940303 # select_molecule
# selected_velocity_salt 5055 cation vel -0.068540 -0.133563 1.465235
# selected_velocity_salt 5120 anion vel 0.675005 0.582366 0.289646
group widom_test id  5055 5120 # select_molecule
2 atoms in group widom_test
set atom 5055 type 7
Setting atom values ...
  1 settings made for type
set atom 5120 type 8
Setting atom values ...
  1 settings made for type
run 0 post no # done selecting a flying molecule
PPPM initialization ...
  using 12-bit tables for long-range coulomb (../kspace.cpp:340)
  G vector (1/distance) = 0.80673798
  grid = 36 36 36
  stencil order = 5
  estimated absolute RMS force accuracy = 8.2278886e-05
  estimated relative force accuracy = 8.2278886e-05
  using single precision KISS FFT
  3d grid and FFT values/proc = 4913 2592
Per MPI rank memory allocation (min/avg/max) = 5.425 | 5.447 | 5.490 Mbytes
Step Temp Atoms Density TotEng PotEng KinEng E_coul E_vdwl E_long Enthalpy Press 
   12000     1.003396     5202     0.752298 -15683.392747 -23511.390193  7827.997446   -70.464708 -23124.409394  -316.516091 -9043.762814     0.960204 
Loop time of 3.57704e-06 on 27 procs for 0 steps with 5202 atoms

group noneq_run_rigid    intersect   all         water               # select_salt no selection
0 atoms in group noneq_run_rigid
group noneq_run_pre      subtract    all         noneq_run_rigid     # select_salt no selection
5202 atoms in group noneq_run_pre
group noneq_run          subtract    noneq_run_pre   widom_test      # select_salt no selection
5200 atoms in group noneq_run
group noneq_run_pre      delete
run 0 post no # mom rev random number
PPPM initialization ...
  using 12-bit tables for long-range coulomb (../kspace.cpp:340)
  G vector (1/distance) = 0.80673798
  grid = 36 36 36
  stencil order = 5
  estimated absolute RMS force accuracy = 8.2278886e-05
  estimated relative force accuracy = 8.2278886e-05
  using single precision KISS FFT
  3d grid and FFT values/proc = 4913 2592
Per MPI rank memory allocation (min/avg/max) = 5.425 | 5.447 | 5.490 Mbytes
Step Temp Atoms Density TotEng PotEng KinEng E_coul E_vdwl E_long Enthalpy Press 
   12000     1.003396     5202     0.752298 -15683.392747 -23511.390193  7827.997446   -70.464708 -23124.409394  -316.516091 -9043.762814     0.960204 
Loop time of 3.03315e-06 on 27 procs for 0 steps with 5202 atoms

######################################################################
pair_style   lj/cut/coul/long/neq 2.500000 3.500000 12000 100 1.000000 5 0 0 1.000000 1.000000 11 1.000000
kspace_style pppm 0.0001

# LJ (neq? True)
# real lj particles
pair_coeff  * *         1.  1.  2.5   # solvent + ions
pair_coeff  4*5 4*5     0   0   2.5   # wall atoms

        
pair_modify  tail no shift yes mix arithmetic # LB mixing rule
neigh_modify delay 2 every 1 check yes page 500000 one 50000
######################################################################
timestep 0.010000
fix  eqmd  noneq_run           nve                 # nve for non-rigid
run 100 # (neq? True) MD run
PPPM initialization ...
  using 12-bit tables for long-range coulomb (../kspace.cpp:340)
  G vector (1/distance) = 0.80673798
  grid = 36 36 36
  stencil order = 5
  estimated absolute RMS force accuracy = 8.2278886e-05
  estimated relative force accuracy = 8.2278886e-05
  using single precision KISS FFT
  3d grid and FFT values/proc = 4913 2592
Neighbor list info ...
  update every 1 steps, delay 2 steps, check yes
  max neighbors/atom: 50000, page size: 500000
  master list distance cutoff = 3.8
  ghost atom cutoff = 3.8
  binsize = 1.9, bins = 11 11 11
  1 neighbor lists, perpetual/occasional/extra = 1 0 0
  (1) pair lj/cut/coul/long/neq, perpetual
      attributes: half, newton on
      pair build: half/bin/atomonly/newton
      stencil: half/bin/3d
      bin: standard
Per MPI rank memory allocation (min/avg/max) = 5.425 | 5.447 | 5.490 Mbytes
Step Temp Atoms Density TotEng PotEng KinEng E_coul E_vdwl E_long Enthalpy Press 
   12000     1.003396     5202     0.752298 -15683.392747 -23511.390193  7827.997446   -70.464708 -23124.409394  -316.516091 -9043.762814     0.960204 
   12100     0.996606     5202     0.752298 -15681.645780 -23456.668290  7775.022510   -67.290503 -23070.160504  -319.217283 -8465.699584     1.043550 
Loop time of 0.306531 on 27 procs for 100 steps with 5202 atoms

Performance: 281863.796 tau/day, 326.231 timesteps/s
93.0% CPU use with 27 MPI tasks x no OpenMP threads

MPI task timing breakdown:
Section |  min time  |  avg time  |  max time  |%varavg| %total
---------------------------------------------------------------
Pair    | 0.060007   | 0.095276   | 0.111      |   5.3 | 31.08
Kspace  | 0.15467    | 0.17247    | 0.20947    |   4.2 | 56.26
Neigh   | 0.014709   | 0.021167   | 0.024521   |   2.1 |  6.91
Comm    | 0.013861   | 0.015453   | 0.019745   |   1.6 |  5.04
Output  | 5.187e-05  | 6.267e-05  | 0.0001847  |   0.0 |  0.02
Modify  | 0.00035791 | 0.00053956 | 0.00068583 |   0.0 |  0.18
Other   |            | 0.001565   |            |       |  0.51

Nlocal:        192.667 ave         201 max         181 min
Histogram: 2 0 1 4 2 1 6 3 5 3
Nghost:        1851.22 ave        1877 max        1816 min
Histogram: 1 1 1 3 2 6 6 2 3 2
Neighs:        16532.8 ave       17472 max       15522 min
Histogram: 3 1 2 4 3 4 2 2 3 3

Total # of neighbors = 446386
Ave neighs/atom = 85.810458
Neighbor list builds = 25
Dangerous builds = 0
unfix    eqmd

group   solvent type 1
5000 atoms in group solvent
group   water   empty
0 atoms in group water
group   ions    type 2 3
202 atoms in group ions
group   wall    type 4 5
0 atoms in group wall
group   flying  type 6 7 8
2 atoms in group flying
group   eq_run  union solvent ions flying
5202 atoms in group eq_run
            
######################################################################
pair_style   lj/cut/coul/long 2.500000 3.500000
kspace_style pppm 0.0001

# LJ (neq? False)
# real lj particles
pair_coeff  * *         1.  1.  2.5   # solvent + ions
pair_coeff  4*5 4*5     0   0   2.5   # wall atoms

        
pair_modify  tail no shift yes mix arithmetic # LB mixing rule
neigh_modify delay 2 every 1 check yes page 500000 one 50000
######################################################################
# dealing with ideal flying particles: force field=simple_lj

# Non-interacting flying lj molecule (trial deletion)
# real lj particles
pair_coeff  * *         1.  1.  2.5   # solvent + ions
pair_coeff  4*5 4*5     0   0   2.5   # wall atoms
# flying particles
pair_coeff  * 6         0   0   2.5   # flying solvent  non-interacting
pair_coeff  * 7         0   0   2.5   # flying cation   non-interacting
pair_coeff  * 8         0   0   2.5   # flying anion    non-interacting

# flying solvetn or ions
set type 6  charge 0.                       # non-interacting
Setting atom values ...
  0 settings made for charge
set type 7  charge 0.                       # non-interacting
Setting atom values ...
  1 settings made for charge
set type 8  charge 0.                       # non-interacting
Setting atom values ...
  1 settings made for charge
        
run 0 post no # making flying moelcule non-interacting
PPPM initialization ...
  using 12-bit tables for long-range coulomb (../kspace.cpp:340)
  G vector (1/distance) = 0.80656374
  grid = 36 36 36
  stencil order = 5
  estimated absolute RMS force accuracy = 8.1571722e-05
  estimated relative force accuracy = 8.1571722e-05
  using single precision KISS FFT
  3d grid and FFT values/proc = 4913 2592
Neighbor list info ...
  update every 1 steps, delay 2 steps, check yes
  max neighbors/atom: 50000, page size: 500000
  master list distance cutoff = 3.8
  ghost atom cutoff = 3.8
  binsize = 1.9, bins = 11 11 11
  1 neighbor lists, perpetual/occasional/extra = 1 0 0
  (1) pair lj/cut/coul/long, perpetual
      attributes: half, newton on
      pair build: half/bin/atomonly/newton
      stencil: half/bin/3d
      bin: standard
Per MPI rank memory allocation (min/avg/max) = 5.425 | 5.447 | 5.490 Mbytes
Step Temp Atoms Density TotEng PotEng KinEng E_coul E_vdwl E_long Enthalpy Press 
   12100     0.996606     5202     0.752298 -15669.353677 -23444.376188  7775.022510   -67.050163 -23063.250919  -314.075106 -8458.808439     1.042768 
Loop time of 3.05226e-06 on 27 procs for 0 steps with 5202 atoms

# done post_propagate after NEMD
# selected salt 5055/5120
#The center of bimodal dist. on a positive side=0.800000
set type 7 type 2
Setting atom values ...
  1 settings made for type
set type 8 type 3
Setting atom values ...
  1 settings made for type
run 0 post no # lj type change (reject_delete)
PPPM initialization ...
  using 12-bit tables for long-range coulomb (../kspace.cpp:340)
  G vector (1/distance) = 0.80656374
  grid = 36 36 36
  stencil order = 5
  estimated absolute RMS force accuracy = 8.1571722e-05
  estimated relative force accuracy = 8.1571722e-05
  using single precision KISS FFT
  3d grid and FFT values/proc = 4913 2592
Per MPI rank memory allocation (min/avg/max) = 5.425 | 5.447 | 5.490 Mbytes
Step Temp Atoms Density TotEng PotEng KinEng E_coul E_vdwl E_long Enthalpy Press 
   12100     0.996606     5202     0.752298 201086.916772 193311.894262  7775.022510   -67.050163 193693.019530  -314.075106 1077880.574721   126.799399 
Loop time of 2.73633e-06 on 27 procs for 0 steps with 5202 atoms

set atom 5055 charge 1.000000
Setting atom values ...
  1 settings made for charge
set atom 5120 charge -1.000000
Setting atom values ...
  1 settings made for charge
run 0 post no # charge return (reject_delete)
PPPM initialization ...
  using 12-bit tables for long-range coulomb (../kspace.cpp:340)
  G vector (1/distance) = 0.80673798
  grid = 36 36 36
  stencil order = 5
  estimated absolute RMS force accuracy = 8.2278886e-05
  estimated relative force accuracy = 8.2278886e-05
  using single precision KISS FFT
  3d grid and FFT values/proc = 4913 2592
Per MPI rank memory allocation (min/avg/max) = 5.425 | 5.447 | 5.490 Mbytes
Step Temp Atoms Density TotEng PotEng KinEng E_coul E_vdwl E_long Enthalpy Press 
   12100     0.996606     5202     0.752298 201079.690915 193304.668405  7775.022510   -69.133842 193693.019530  -319.217283 1077870.939504   126.799050 
Loop time of 2.93607e-06 on 27 procs for 0 steps with 5202 atoms

run 0 post no # return_position back to old
PPPM initialization ...
  using 12-bit tables for long-range coulomb (../kspace.cpp:340)
  G vector (1/distance) = 0.80673798
  grid = 36 36 36
  stencil order = 5
  estimated absolute RMS force accuracy = 8.2278886e-05
  estimated relative force accuracy = 8.2278886e-05
  using single precision KISS FFT
  3d grid and FFT values/proc = 4913 2592
Per MPI rank memory allocation (min/avg/max) = 5.425 | 5.447 | 5.490 Mbytes
Step Temp Atoms Density TotEng PotEng KinEng E_coul E_vdwl E_long Enthalpy Press 
   12100     1.003396     5202     0.752298 -15683.392747 -23511.390193  7827.997446   -70.464708 -23124.409394  -316.516091 -9043.762815     0.960204 
Loop time of 2.819e-06 on 27 procs for 0 steps with 5202 atoms

group widom_test         delete
group noneq_run          delete
group noneq_run_rigid    delete
reset_timestep 12000

group   solvent delete
group   water   delete
group   ions    delete
group   wall    delete
group   flying  delete
group   eq_run  delete
        

group   solvent type 1
5000 atoms in group solvent
group   water   empty
0 atoms in group water
group   ions    type 2 3
202 atoms in group ions
group   wall    type 4 5
0 atoms in group wall
group   flying  type 6 7 8
0 atoms in group flying
group   eq_run  union solvent ions flying
5202 atoms in group eq_run
            
######################################################################
pair_style   lj/cut/coul/long 2.500000 3.500000
kspace_style pppm 0.0001

# LJ (neq? False)
# real lj particles
pair_coeff  * *         1.  1.  2.5   # solvent + ions
pair_coeff  4*5 4*5     0   0   2.5   # wall atoms

        
pair_modify  tail no shift yes mix arithmetic # LB mixing rule
neigh_modify delay 2 every 1 check yes page 500000 one 50000
######################################################################
# shake is off; should be a dummy run
timestep 0.005000
thermo 2000
fix  eqmd   eq_run nvt temp 1.000000 1.000000 0.500000
run 0 # (neq? False) MD run
PPPM initialization ...
  using 12-bit tables for long-range coulomb (../kspace.cpp:340)
  G vector (1/distance) = 0.80673798
  grid = 36 36 36
  stencil order = 5
  estimated absolute RMS force accuracy = 8.2278886e-05
  estimated relative force accuracy = 8.2278886e-05
  using single precision KISS FFT
  3d grid and FFT values/proc = 4913 2592
Per MPI rank memory allocation (min/avg/max) = 5.425 | 5.447 | 5.490 Mbytes
Step Temp Atoms Density TotEng PotEng KinEng E_coul E_vdwl E_long Enthalpy Press 
   12000     1.003396     5202     0.752298 -15683.392747 -23511.390193  7827.997446   -70.464708 -23124.409394  -316.516091 -9043.762815     0.960204 
Loop time of 3.21115e-06 on 27 procs for 0 steps with 5202 atoms

108.4% CPU use with 27 MPI tasks x no OpenMP threads

MPI task timing breakdown:
Section |  min time  |  avg time  |  max time  |%varavg| %total
---------------------------------------------------------------
Pair    | 0          | 0          | 0          |   0.0 |  0.00
Kspace  | 0          | 0          | 0          |   0.0 |  0.00
Neigh   | 0          | 0          | 0          |   0.0 |  0.00
Comm    | 0          | 0          | 0          |   0.0 |  0.00
Output  | 0          | 0          | 0          |   0.0 |  0.00
Modify  | 0          | 0          | 0          |   0.0 |  0.00
Other   |            | 3.211e-06  |            |       |100.00

Nlocal:        192.667 ave         207 max         179 min
Histogram: 1 1 4 1 6 6 5 2 0 1
Nghost:        1847.07 ave        1869 max        1832 min
Histogram: 2 5 2 6 4 2 1 3 0 2
Neighs:        16527.7 ave       18097 max       14929 min
Histogram: 2 1 2 2 6 5 3 4 1 1

Total # of neighbors = 446249
Ave neighs/atom = 85.784121
Neighbor list builds = 0
Dangerous builds = 0
unfix    eqmd
#chosen_cation deletion_move 4.325792 5.573336 3.730637 # select_molecule
#chosen_anion deletion_move 2.465944 3.938539 3.878268 # select_molecule
# selected_velocity_salt 5002 cation vel -0.533359 -0.700944 -0.455011
# selected_velocity_salt 5123 anion vel -0.862376 -1.415947 0.165090
group widom_test id  5002 5123 # select_molecule
2 atoms in group widom_test
set atom 5002 type 7
Setting atom values ...
  1 settings made for type
set atom 5123 type 8
Setting atom values ...
  1 settings made for type
run 0 post no # done selecting a flying molecule
PPPM initialization ...
  using 12-bit tables for long-range coulomb (../kspace.cpp:340)
  G vector (1/distance) = 0.80673798
  grid = 36 36 36
  stencil order = 5
  estimated absolute RMS force accuracy = 8.2278886e-05
  estimated relative force accuracy = 8.2278886e-05
  using single precision KISS FFT
  3d grid and FFT values/proc = 4913 2592
Per MPI rank memory allocation (min/avg/max) = 5.425 | 5.447 | 5.490 Mbytes
Step Temp Atoms Density TotEng PotEng KinEng E_coul E_vdwl E_long Enthalpy Press 
   12000     1.003396     5202     0.752298 -15683.392747 -23511.390193  7827.997446   -70.464708 -23124.409394  -316.516091 -9043.762815     0.960204 
Loop time of 3.45585e-06 on 27 procs for 0 steps with 5202 atoms

group noneq_run_rigid    intersect   all         water               # select_salt no selection
0 atoms in group noneq_run_rigid
group noneq_run_pre      subtract    all         noneq_run_rigid     # select_salt no selection
5202 atoms in group noneq_run_pre
group noneq_run          subtract    noneq_run_pre   widom_test      # select_salt no selection
5200 atoms in group noneq_run
group noneq_run_pre      delete
run 0 post no # mom rev random number
PPPM initialization ...
  using 12-bit tables for long-range coulomb (../kspace.cpp:340)
  G vector (1/distance) = 0.80673798
  grid = 36 36 36
  stencil order = 5
  estimated absolute RMS force accuracy = 8.2278886e-05
  estimated relative force accuracy = 8.2278886e-05
  using single precision KISS FFT
  3d grid and FFT values/proc = 4913 2592
Per MPI rank memory allocation (min/avg/max) = 5.425 | 5.447 | 5.490 Mbytes
Step Temp Atoms Density TotEng PotEng KinEng E_coul E_vdwl E_long Enthalpy Press 
   12000     1.003396     5202     0.752298 -15683.392747 -23511.390193  7827.997446   -70.464708 -23124.409394  -316.516091 -9043.762815     0.960204 
Loop time of 2.7873e-06 on 27 procs for 0 steps with 5202 atoms

######################################################################
pair_style   lj/cut/coul/long/neq 2.500000 3.500000 12000 100 1.000000 5 0 0 1.000000 1.000000 11 1.000000
kspace_style pppm 0.0001

# LJ (neq? True)
# real lj particles
pair_coeff  * *         1.  1.  2.5   # solvent + ions
pair_coeff  4*5 4*5     0   0   2.5   # wall atoms

        
pair_modify  tail no shift yes mix arithmetic # LB mixing rule
neigh_modify delay 2 every 1 check yes page 500000 one 50000
######################################################################
timestep 0.010000
fix  eqmd  noneq_run           nve                 # nve for non-rigid
run 100 # (neq? True) MD run
PPPM initialization ...
  using 12-bit tables for long-range coulomb (../kspace.cpp:340)
  G vector (1/distance) = 0.80673798
  grid = 36 36 36
  stencil order = 5
  estimated absolute RMS force accuracy = 8.2278886e-05
  estimated relative force accuracy = 8.2278886e-05
  using single precision KISS FFT
  3d grid and FFT values/proc = 4913 2592
Neighbor list info ...
  update every 1 steps, delay 2 steps, check yes
  max neighbors/atom: 50000, page size: 500000
  master list distance cutoff = 3.8
  ghost atom cutoff = 3.8
  binsize = 1.9, bins = 11 11 11
  1 neighbor lists, perpetual/occasional/extra = 1 0 0
  (1) pair lj/cut/coul/long/neq, perpetual
      attributes: half, newton on
      pair build: half/bin/atomonly/newton
      stencil: half/bin/3d
      bin: standard
Per MPI rank memory allocation (min/avg/max) = 5.425 | 5.447 | 5.490 Mbytes
Step Temp Atoms Density TotEng PotEng KinEng E_coul E_vdwl E_long Enthalpy Press 
   12000     1.003396     5202     0.752298 -15683.392747 -23511.390193  7827.997446   -70.464708 -23124.409394  -316.516091 -9043.762815     0.960204 
   12100     0.997729     5202     0.752298 -15677.974729 -23461.757018  7783.782289   -69.899827 -23072.715752  -319.141440 -8537.570625     1.032625 
Loop time of 0.308822 on 27 procs for 100 steps with 5202 atoms

Performance: 279772.576 tau/day, 323.811 timesteps/s
92.5% CPU use with 27 MPI tasks x no OpenMP threads

MPI task timing breakdown:
Section |  min time  |  avg time  |  max time  |%varavg| %total
---------------------------------------------------------------
Pair    | 0.061376   | 0.095013   | 0.11185    |   5.2 | 30.77
Kspace  | 0.15777    | 0.17484    | 0.21035    |   4.1 | 56.62
Neigh   | 0.014737   | 0.02118    | 0.024799   |   2.1 |  6.86
Comm    | 0.013987   | 0.015608   | 0.019969   |   1.6 |  5.05
Output  | 5.3743e-05 | 6.2654e-05 | 0.00018014 |   0.0 |  0.02
Modify  | 0.00035831 | 0.0005327  | 0.00064066 |   0.0 |  0.17
Other   |            | 0.001581   |            |       |  0.51

Nlocal:        192.667 ave         203 max         181 min
Histogram: 2 0 2 1 7 6 3 3 1 2
Nghost:        1850.52 ave        1880 max        1822 min
Histogram: 1 1 3 4 4 5 4 3 1 1
Neighs:        16530.7 ave       17843 max       15447 min
Histogram: 2 2 5 2 4 6 2 1 2 1

Total # of neighbors = 446328
Ave neighs/atom = 85.799308
Neighbor list builds = 25
Dangerous builds = 0
unfix    eqmd

group   solvent type 1
5000 atoms in group solvent
group   water   empty
0 atoms in group water
group   ions    type 2 3
202 atoms in group ions
group   wall    type 4 5
0 atoms in group wall
group   flying  type 6 7 8
2 atoms in group flying
group   eq_run  union solvent ions flying
5202 atoms in group eq_run
            
######################################################################
pair_style   lj/cut/coul/long 2.500000 3.500000
kspace_style pppm 0.0001

# LJ (neq? False)
# real lj particles
pair_coeff  * *         1.  1.  2.5   # solvent + ions
pair_coeff  4*5 4*5     0   0   2.5   # wall atoms

        
pair_modify  tail no shift yes mix arithmetic # LB mixing rule
neigh_modify delay 2 every 1 check yes page 500000 one 50000
######################################################################
# dealing with ideal flying particles: force field=simple_lj

# Non-interacting flying lj molecule (trial deletion)
# real lj particles
pair_coeff  * *         1.  1.  2.5   # solvent + ions
pair_coeff  4*5 4*5     0   0   2.5   # wall atoms
# flying particles
pair_coeff  * 6         0   0   2.5   # flying solvent  non-interacting
pair_coeff  * 7         0   0   2.5   # flying cation   non-interacting
pair_coeff  * 8         0   0   2.5   # flying anion    non-interacting

# flying solvetn or ions
set type 6  charge 0.                       # non-interacting
Setting atom values ...
  0 settings made for charge
set type 7  charge 0.                       # non-interacting
Setting atom values ...
  1 settings made for charge
set type 8  charge 0.                       # non-interacting
Setting atom values ...
  1 settings made for charge
        
run 0 post no # making flying moelcule non-interacting
PPPM initialization ...
  using 12-bit tables for long-range coulomb (../kspace.cpp:340)
  G vector (1/distance) = 0.80656374
  grid = 36 36 36
  stencil order = 5
  estimated absolute RMS force accuracy = 8.1571722e-05
  estimated relative force accuracy = 8.1571722e-05
  using single precision KISS FFT
  3d grid and FFT values/proc = 4913 2592
Neighbor list info ...
  update every 1 steps, delay 2 steps, check yes
  max neighbors/atom: 50000, page size: 500000
  master list distance cutoff = 3.8
  ghost atom cutoff = 3.8
  binsize = 1.9, bins = 11 11 11
  1 neighbor lists, perpetual/occasional/extra = 1 0 0
  (1) pair lj/cut/coul/long, perpetual
      attributes: half, newton on
      pair build: half/bin/atomonly/newton
      stencil: half/bin/3d
      bin: standard
Per MPI rank memory allocation (min/avg/max) = 5.425 | 5.447 | 5.490 Mbytes
Step Temp Atoms Density TotEng PotEng KinEng E_coul E_vdwl E_long Enthalpy Press 
   12100     0.997729     5202     0.752298 -15666.272446 -23450.054736  7783.782289   -69.933264 -23063.462711  -316.658761 -8515.740544     1.034090 
Loop time of 2.69152e-06 on 27 procs for 0 steps with 5202 atoms

# done post_propagate after NEMD
# selected salt 5002/5123
#The center of bimodal dist. on a positive side=0.800000
set type 7 type 2
Setting atom values ...
  1 settings made for type
set type 8 type 3
Setting atom values ...
  1 settings made for type
run 0 post no # lj type change (reject_delete)
PPPM initialization ...
  using 12-bit tables for long-range coulomb (../kspace.cpp:340)
  G vector (1/distance) = 0.80656374
  grid = 36 36 36
  stencil order = 5
  estimated absolute RMS force accuracy = 8.1571722e-05
  estimated relative force accuracy = 8.1571722e-05
  using single precision KISS FFT
  3d grid and FFT values/proc = 4913 2592
Per MPI rank memory allocation (min/avg/max) = 5.425 | 5.447 | 5.490 Mbytes
Step Temp Atoms Density TotEng PotEng KinEng E_coul E_vdwl E_long Enthalpy Press 
   12100     0.997729     5202     0.752298 -12920.743139 -20704.525428  7783.782289   -69.933264 -20317.933404  -316.658761  5731.217810     2.697393 
Loop time of 3.06574e-06 on 27 procs for 0 steps with 5202 atoms

set atom 5002 charge 1.000000
Setting atom values ...
  1 settings made for charge
set atom 5123 charge -1.000000
Setting atom values ...
  1 settings made for charge
run 0 post no # charge return (reject_delete)
PPPM initialization ...
  using 12-bit tables for long-range coulomb (../kspace.cpp:340)
  G vector (1/distance) = 0.80673798
  grid = 36 36 36
  stencil order = 5
  estimated absolute RMS force accuracy = 8.2278886e-05
  estimated relative force accuracy = 8.2278886e-05
  using single precision KISS FFT
  3d grid and FFT values/proc = 4913 2592
Per MPI rank memory allocation (min/avg/max) = 5.425 | 5.447 | 5.490 Mbytes
Step Temp Atoms Density TotEng PotEng KinEng E_coul E_vdwl E_long Enthalpy Press 
   12100     0.997729     5202     0.752298 -12923.199668 -20706.981957  7783.782289   -69.907113 -20317.933404  -319.141440  5727.943611     2.697275 
Loop time of 2.75448e-06 on 27 procs for 0 steps with 5202 atoms

run 0 post no # return_position back to old
PPPM initialization ...
  using 12-bit tables for long-range coulomb (../kspace.cpp:340)
  G vector (1/distance) = 0.80673798
  grid = 36 36 36
  stencil order = 5
  estimated absolute RMS force accuracy = 8.2278886e-05
  estimated relative force accuracy = 8.2278886e-05
  using single precision KISS FFT
  3d grid and FFT values/proc = 4913 2592
Per MPI rank memory allocation (min/avg/max) = 5.425 | 5.447 | 5.490 Mbytes
Step Temp Atoms Density TotEng PotEng KinEng E_coul E_vdwl E_long Enthalpy Press 
   12100     1.003396     5202     0.752298 -15683.392747 -23511.390193  7827.997446   -70.464708 -23124.409394  -316.516091 -9043.762815     0.960204 
Loop time of 2.44885e-06 on 27 procs for 0 steps with 5202 atoms

group widom_test         delete
group noneq_run          delete
group noneq_run_rigid    delete
reset_timestep 12000

group   solvent delete
group   water   delete
group   ions    delete
group   wall    delete
group   flying  delete
group   eq_run  delete
        

group   solvent type 1
5000 atoms in group solvent
group   water   empty
0 atoms in group water
group   ions    type 2 3
202 atoms in group ions
group   wall    type 4 5
0 atoms in group wall
group   flying  type 6 7 8
0 atoms in group flying
group   eq_run  union solvent ions flying
5202 atoms in group eq_run
            
######################################################################
pair_style   lj/cut/coul/long 2.500000 3.500000
kspace_style pppm 0.0001

# LJ (neq? False)
# real lj particles
pair_coeff  * *         1.  1.  2.5   # solvent + ions
pair_coeff  4*5 4*5     0   0   2.5   # wall atoms

        
pair_modify  tail no shift yes mix arithmetic # LB mixing rule
neigh_modify delay 2 every 1 check yes page 500000 one 50000
######################################################################
# shake is off; should be a dummy run
timestep 0.005000
thermo 2000
fix  eqmd   eq_run nvt temp 1.000000 1.000000 0.500000
run 0 # (neq? False) MD run
PPPM initialization ...
  using 12-bit tables for long-range coulomb (../kspace.cpp:340)
  G vector (1/distance) = 0.80673798
  grid = 36 36 36
  stencil order = 5
  estimated absolute RMS force accuracy = 8.2278886e-05
  estimated relative force accuracy = 8.2278886e-05
  using single precision KISS FFT
  3d grid and FFT values/proc = 4913 2592
Per MPI rank memory allocation (min/avg/max) = 5.425 | 5.447 | 5.490 Mbytes
Step Temp Atoms Density TotEng PotEng KinEng E_coul E_vdwl E_long Enthalpy Press 
   12000     1.003396     5202     0.752298 -15683.392747 -23511.390193  7827.997446   -70.464708 -23124.409394  -316.516091 -9043.762815     0.960204 
Loop time of 3.21444e-06 on 27 procs for 0 steps with 5202 atoms

94.5% CPU use with 27 MPI tasks x no OpenMP threads

MPI task timing breakdown:
Section |  min time  |  avg time  |  max time  |%varavg| %total
---------------------------------------------------------------
Pair    | 0          | 0          | 0          |   0.0 |  0.00
Kspace  | 0          | 0          | 0          |   0.0 |  0.00
Neigh   | 0          | 0          | 0          |   0.0 |  0.00
Comm    | 0          | 0          | 0          |   0.0 |  0.00
Output  | 0          | 0          | 0          |   0.0 |  0.00
Modify  | 0          | 0          | 0          |   0.0 |  0.00
Other   |            | 3.214e-06  |            |       |100.00

Nlocal:        192.667 ave         207 max         179 min
Histogram: 1 1 4 1 6 6 5 2 0 1
Nghost:        1847.07 ave        1869 max        1832 min
Histogram: 2 5 2 6 4 2 1 3 0 2
Neighs:        16527.7 ave       18097 max       14929 min
Histogram: 2 1 2 2 6 5 3 4 1 1

Total # of neighbors = 446249
Ave neighs/atom = 85.784121
Neighbor list builds = 0
Dangerous builds = 0
unfix    eqmd
#chosen_cation deletion_move 4.312422 3.544046 -1.160986 # select_molecule
#chosen_anion deletion_move 3.964103 3.224302 -0.258250 # select_molecule
# selected_velocity_salt 5027 cation vel 0.417222 1.449165 -0.266947
# selected_velocity_salt 5109 anion vel 0.193744 -0.822982 -1.334039
group widom_test id  5027 5109 # select_molecule
2 atoms in group widom_test
set atom 5027 type 7
Setting atom values ...
  1 settings made for type
set atom 5109 type 8
Setting atom values ...
  1 settings made for type
run 0 post no # done selecting a flying molecule
PPPM initialization ...
  using 12-bit tables for long-range coulomb (../kspace.cpp:340)
  G vector (1/distance) = 0.80673798
  grid = 36 36 36
  stencil order = 5
  estimated absolute RMS force accuracy = 8.2278886e-05
  estimated relative force accuracy = 8.2278886e-05
  using single precision KISS FFT
  3d grid and FFT values/proc = 4913 2592
Per MPI rank memory allocation (min/avg/max) = 5.425 | 5.447 | 5.490 Mbytes
Step Temp Atoms Density TotEng PotEng KinEng E_coul E_vdwl E_long Enthalpy Press 
   12000     1.003396     5202     0.752298 -15683.392747 -23511.390193  7827.997446   -70.464708 -23124.409394  -316.516091 -9043.762815     0.960204 
Loop time of 2.89933e-06 on 27 procs for 0 steps with 5202 atoms

group noneq_run_rigid    intersect   all         water               # select_salt no selection
0 atoms in group noneq_run_rigid
group noneq_run_pre      subtract    all         noneq_run_rigid     # select_salt no selection
5202 atoms in group noneq_run_pre
group noneq_run          subtract    noneq_run_pre   widom_test      # select_salt no selection
5200 atoms in group noneq_run
group noneq_run_pre      delete
run 0 post no # mom rev random number
PPPM initialization ...
  using 12-bit tables for long-range coulomb (../kspace.cpp:340)
  G vector (1/distance) = 0.80673798
  grid = 36 36 36
  stencil order = 5
  estimated absolute RMS force accuracy = 8.2278886e-05
  estimated relative force accuracy = 8.2278886e-05
  using single precision KISS FFT
  3d grid and FFT values/proc = 4913 2592
Per MPI rank memory allocation (min/avg/max) = 5.425 | 5.447 | 5.490 Mbytes
Step Temp Atoms Density TotEng PotEng KinEng E_coul E_vdwl E_long Enthalpy Press 
   12000     1.003396     5202     0.752298 -15683.392747 -23511.390193  7827.997446   -70.464708 -23124.409394  -316.516091 -9043.762815     0.960204 
Loop time of 2.88659e-06 on 27 procs for 0 steps with 5202 atoms

######################################################################
pair_style   lj/cut/coul/long/neq 2.500000 3.500000 12000 100 1.000000 5 0 0 1.000000 1.000000 11 1.000000
kspace_style pppm 0.0001

# LJ (neq? True)
# real lj particles
pair_coeff  * *         1.  1.  2.5   # solvent + ions
pair_coeff  4*5 4*5     0   0   2.5   # wall atoms

        
pair_modify  tail no shift yes mix arithmetic # LB mixing rule
neigh_modify delay 2 every 1 check yes page 500000 one 50000
######################################################################
timestep 0.010000
fix  eqmd  noneq_run           nve                 # nve for non-rigid
run 100 # (neq? True) MD run
PPPM initialization ...
  using 12-bit tables for long-range coulomb (../kspace.cpp:340)
  G vector (1/distance) = 0.80673798
  grid = 36 36 36
  stencil order = 5
  estimated absolute RMS force accuracy = 8.2278886e-05
  estimated relative force accuracy = 8.2278886e-05
  using single precision KISS FFT
  3d grid and FFT values/proc = 4913 2592
Neighbor list info ...
  update every 1 steps, delay 2 steps, check yes
  max neighbors/atom: 50000, page size: 500000
[...]
Neighs:        16531.4 ave       17486 max       15522 min
Histogram: 2 3 2 3 4 3 1 4 1 4

Total # of neighbors = 446349
Ave neighs/atom = 85.803345
Neighbor list builds = 25
Dangerous builds = 0
unfix    eqmd

group   solvent type 1
5000 atoms in group solvent
group   water   empty
0 atoms in group water
group   ions    type 2 3
202 atoms in group ions
group   wall    type 4 5
0 atoms in group wall
group   flying  type 6 7 8
2 atoms in group flying
group   eq_run  union solvent ions flying
5202 atoms in group eq_run
            
######################################################################
pair_style   lj/cut/coul/long 2.500000 3.500000
kspace_style pppm 0.0001

# LJ (neq? False)
# real lj particles
pair_coeff  * *         1.  1.  2.5   # solvent + ions
pair_coeff  4*5 4*5     0   0   2.5   # wall atoms

        
pair_modify  tail no shift yes mix arithmetic # LB mixing rule
neigh_modify delay 2 every 1 check yes page 500000 one 50000
######################################################################
# dealing with ideal flying particles: force field=simple_lj

# Non-interacting flying lj molecule (trial deletion)
# real lj particles
pair_coeff  * *         1.  1.  2.5   # solvent + ions
pair_coeff  4*5 4*5     0   0   2.5   # wall atoms
# flying particles
pair_coeff  * 6         0   0   2.5   # flying solvent  non-interacting
pair_coeff  * 7         0   0   2.5   # flying cation   non-interacting
pair_coeff  * 8         0   0   2.5   # flying anion    non-interacting

# flying solvetn or ions
set type 6  charge 0.                       # non-interacting
Setting atom values ...
  0 settings made for charge
set type 7  charge 0.                       # non-interacting
Setting atom values ...
  1 settings made for charge
set type 8  charge 0.                       # non-interacting
Setting atom values ...
  1 settings made for charge
        
run 0 post no # making flying moelcule non-interacting
PPPM initialization ...
  using 12-bit tables for long-range coulomb (../kspace.cpp:340)
  G vector (1/distance) = 0.80656374
  grid = 36 36 36
  stencil order = 5
  estimated absolute RMS force accuracy = 8.1571722e-05
  estimated relative force accuracy = 8.1571722e-05
  using single precision KISS FFT
  3d grid and FFT values/proc = 4913 2592
Neighbor list info ...
  update every 1 steps, delay 2 steps, check yes
  max neighbors/atom: 50000, page size: 500000
  master list distance cutoff = 3.8
  ghost atom cutoff = 3.8
  binsize = 1.9, bins = 11 11 11
  1 neighbor lists, perpetual/occasional/extra = 1 0 0
  (1) pair lj/cut/coul/long, perpetual
      attributes: half, newton on
      pair build: half/bin/atomonly/newton
      stencil: half/bin/3d
      bin: standard
Per MPI rank memory allocation (min/avg/max) = 5.425 | 5.447 | 5.490 Mbytes
Step Temp Atoms Density TotEng PotEng KinEng E_coul E_vdwl E_long Enthalpy Press 
   12100     0.995527     5202     0.752298 -15666.018739 -23432.624268  7766.605528   -66.408368 -23051.789627  -314.426273 -8437.351702     1.045389 
Loop time of 3.0043e-06 on 27 procs for 0 steps with 5202 atoms

# done post_propagate after NEMD
# selected salt 5099/5136
#The center of bimodal dist. on a positive side=0.800000
set type 7 type 2
Setting atom values ...
  1 settings made for type
set type 8 type 3
Setting atom values ...
  1 settings made for type
run 0 post no # lj type change (reject_delete)
PPPM initialization ...
  using 12-bit tables for long-range coulomb (../kspace.cpp:340)
  G vector (1/distance) = 0.80656374
  grid = 36 36 36
  stencil order = 5
  estimated absolute RMS force accuracy = 8.1571722e-05
  estimated relative force accuracy = 8.1571722e-05
  using single precision KISS FFT
  3d grid and FFT values/proc = 4913 2592
Per MPI rank memory allocation (min/avg/max) = 5.425 | 5.447 | 5.490 Mbytes
Step Temp Atoms Density TotEng PotEng KinEng E_coul E_vdwl E_long Enthalpy Press 
   12100     0.995527     5202     0.752298 -14156.479751 -21923.085280  7766.605528   -66.408368 -21542.250639  -314.426273  -540.520233     1.969101 
Loop time of 3.03919e-06 on 27 procs for 0 steps with 5202 atoms

set atom 5099 charge 1.000000
Setting atom values ...
  1 settings made for charge
set atom 5136 charge -1.000000
Setting atom values ...
  1 settings made for charge
run 0 post no # charge return (reject_delete)
PPPM initialization ...
  using 12-bit tables for long-range coulomb (../kspace.cpp:340)
  G vector (1/distance) = 0.80673798
  grid = 36 36 36
  stencil order = 5
  estimated absolute RMS force accuracy = 8.2278886e-05
  estimated relative force accuracy = 8.2278886e-05
  using single precision KISS FFT
  3d grid and FFT values/proc = 4913 2592
Per MPI rank memory allocation (min/avg/max) = 5.425 | 5.447 | 5.490 Mbytes
Step Temp Atoms Density TotEng PotEng KinEng E_coul E_vdwl E_long Enthalpy Press 
   12100     0.995527     5202     0.752298 -14162.107770 -21928.713298  7766.605528   -68.240636 -21542.250639  -318.222023  -548.023877     1.968830 
Loop time of 2.78585e-06 on 27 procs for 0 steps with 5202 atoms

run 0 post no # return_position back to old
PPPM initialization ...
  using 12-bit tables for long-range coulomb (../kspace.cpp:340)
  G vector (1/distance) = 0.80673798
  grid = 36 36 36
  stencil order = 5
  estimated absolute RMS force accuracy = 8.2278886e-05
  estimated relative force accuracy = 8.2278886e-05
  using single precision KISS FFT
  3d grid and FFT values/proc = 4913 2592
Per MPI rank memory allocation (min/avg/max) = 5.425 | 5.447 | 5.490 Mbytes
Step Temp Atoms Density TotEng PotEng KinEng E_coul E_vdwl E_long Enthalpy Press 
   12100     1.003396     5202     0.752298 -15683.392747 -23511.390193  7827.997446   -70.464708 -23124.409394  -316.516091 -9043.762814     0.960204 
Loop time of 2.98778e-06 on 27 procs for 0 steps with 5202 atoms

group widom_test         delete
group noneq_run          delete
group noneq_run_rigid    delete
reset_timestep 12000

group   solvent delete
group   water   delete
group   ions    delete
group   wall    delete
group   flying  delete
group   eq_run  delete
        

group   solvent type 1
5000 atoms in group solvent
group   water   empty
0 atoms in group water
group   ions    type 2 3
202 atoms in group ions
group   wall    type 4 5
0 atoms in group wall
group   flying  type 6 7 8
0 atoms in group flying
group   eq_run  union solvent ions flying
5202 atoms in group eq_run
            
######################################################################
pair_style   lj/cut/coul/long 2.500000 3.500000
kspace_style pppm 0.0001

# LJ (neq? False)
# real lj particles
pair_coeff  * *         1.  1.  2.5   # solvent + ions
pair_coeff  4*5 4*5     0   0   2.5   # wall atoms

        
pair_modify  tail no shift yes mix arithmetic # LB mixing rule
neigh_modify delay 2 every 1 check yes page 500000 one 50000
######################################################################
# shake is off; should be a dummy run
timestep 0.005000
thermo 2000
fix  eqmd   eq_run nvt temp 1.000000 1.000000 0.500000
run 0 # (neq? False) MD run
PPPM initialization ...
  using 12-bit tables for long-range coulomb (../kspace.cpp:340)
  G vector (1/distance) = 0.80673798
  grid = 36 36 36
  stencil order = 5
  estimated absolute RMS force accuracy = 8.2278886e-05
  estimated relative force accuracy = 8.2278886e-05
  using single precision KISS FFT
  3d grid and FFT values/proc = 4913 2592
Per MPI rank memory allocation (min/avg/max) = 5.425 | 5.447 | 5.490 Mbytes
Step Temp Atoms Density TotEng PotEng KinEng E_coul E_vdwl E_long Enthalpy Press 
   12000     1.003396     5202     0.752298 -15683.392747 -23511.390193  7827.997446   -70.464708 -23124.409394  -316.516091 -9043.762814     0.960204 
Loop time of 3.47619e-06 on 27 procs for 0 steps with 5202 atoms

93.8% CPU use with 27 MPI tasks x no OpenMP threads

MPI task timing breakdown:
Section |  min time  |  avg time  |  max time  |%varavg| %total
---------------------------------------------------------------
Pair    | 0          | 0          | 0          |   0.0 |  0.00
Kspace  | 0          | 0          | 0          |   0.0 |  0.00
Neigh   | 0          | 0          | 0          |   0.0 |  0.00
Comm    | 0          | 0          | 0          |   0.0 |  0.00
Output  | 0          | 0          | 0          |   0.0 |  0.00
Modify  | 0          | 0          | 0          |   0.0 |  0.00
Other   |            | 3.476e-06  |            |       |100.00

Nlocal:        192.667 ave         207 max         179 min
Histogram: 1 1 4 1 6 6 5 2 0 1
Nghost:        1847.07 ave        1869 max        1832 min
Histogram: 2 5 2 6 4 2 1 3 0 2
Neighs:        16527.7 ave       18097 max       14929 min
Histogram: 2 1 2 2 6 5 3 4 1 1

Total # of neighbors = 446249
Ave neighs/atom = 85.784121
Neighbor list builds = 0
Dangerous builds = 0
unfix    eqmd
#chosen_cation deletion_move -0.953128 -1.443349 7.094476 # select_molecule
#chosen_anion deletion_move 0.276251 -0.658151 8.157131 # select_molecule
# selected_velocity_salt 5001 cation vel -1.248992 0.840284 -1.902269
# selected_velocity_salt 5166 anion vel -0.137317 -0.157972 -0.722022
group widom_test id  5001 5166 # select_molecule
2 atoms in group widom_test
set atom 5001 type 7
Setting atom values ...
  1 settings made for type
set atom 5166 type 8
Setting atom values ...
  1 settings made for type
run 0 post no # done selecting a flying molecule
PPPM initialization ...
  using 12-bit tables for long-range coulomb (../kspace.cpp:340)
  G vector (1/distance) = 0.80673798
  grid = 36 36 36
  stencil order = 5
  estimated absolute RMS force accuracy = 8.2278886e-05
  estimated relative force accuracy = 8.2278886e-05
  using single precision KISS FFT
  3d grid and FFT values/proc = 4913 2592
Per MPI rank memory allocation (min/avg/max) = 5.425 | 5.447 | 5.490 Mbytes
Step Temp Atoms Density TotEng PotEng KinEng E_coul E_vdwl E_long Enthalpy Press 
   12000     1.003396     5202     0.752298 -15683.392747 -23511.390193  7827.997446   -70.464708 -23124.409394  -316.516091 -9043.762814     0.960204 
Loop time of 2.86941e-06 on 27 procs for 0 steps with 5202 atoms

group noneq_run_rigid    intersect   all         water               # select_salt no selection
0 atoms in group noneq_run_rigid
group noneq_run_pre      subtract    all         noneq_run_rigid     # select_salt no selection
5202 atoms in group noneq_run_pre
group noneq_run          subtract    noneq_run_pre   widom_test      # select_salt no selection
5200 atoms in group noneq_run
group noneq_run_pre      delete
run 0 post no # mom rev random number
PPPM initialization ...
  using 12-bit tables for long-range coulomb (../kspace.cpp:340)
  G vector (1/distance) = 0.80673798
  grid = 36 36 36
  stencil order = 5
  estimated absolute RMS force accuracy = 8.2278886e-05
  estimated relative force accuracy = 8.2278886e-05
  using single precision KISS FFT
  3d grid and FFT values/proc = 4913 2592
Per MPI rank memory allocation (min/avg/max) = 5.425 | 5.447 | 5.490 Mbytes
Step Temp Atoms Density TotEng PotEng KinEng E_coul E_vdwl E_long Enthalpy Press 
   12000     1.003396     5202     0.752298 -15683.392747 -23511.390193  7827.997446   -70.464708 -23124.409394  -316.516091 -9043.762814     0.960204 
Loop time of 2.63393e-06 on 27 procs for 0 steps with 5202 atoms

######################################################################
pair_style   lj/cut/coul/long/neq 2.500000 3.500000 12000 100 1.000000 5 0 0 1.000000 1.000000 11 1.000000
kspace_style pppm 0.0001

# LJ (neq? True)
# real lj particles
pair_coeff  * *         1.  1.  2.5   # solvent + ions
pair_coeff  4*5 4*5     0   0   2.5   # wall atoms

        
pair_modify  tail no shift yes mix arithmetic # LB mixing rule
neigh_modify delay 2 every 1 check yes page 500000 one 50000
######################################################################
timestep 0.010000
fix  eqmd  noneq_run           nve                 # nve for non-rigid
run 100 # (neq? True) MD run
PPPM initialization ...
  using 12-bit tables for long-range coulomb (../kspace.cpp:340)
  G vector (1/distance) = 0.80673798
  grid = 36 36 36
  stencil order = 5
  estimated absolute RMS force accuracy = 8.2278886e-05
  estimated relative force accuracy = 8.2278886e-05
  using single precision KISS FFT
  3d grid and FFT values/proc = 4913 2592
Neighbor list info ...
  update every 1 steps, delay 2 steps, check yes
  max neighbors/atom: 50000, page size: 500000
  master list distance cutoff = 3.8
  ghost atom cutoff = 3.8
  binsize = 1.9, bins = 11 11 11
  1 neighbor lists, perpetual/occasional/extra = 1 0 0
  (1) pair lj/cut/coul/long/neq, perpetual
      attributes: half, newton on
      pair build: half/bin/atomonly/newton
      stencil: half/bin/3d
      bin: standard
Per MPI rank memory allocation (min/avg/max) = 5.425 | 5.447 | 5.490 Mbytes
Step Temp Atoms Density TotEng PotEng KinEng E_coul E_vdwl E_long Enthalpy Press 
   12000     1.003396     5202     0.752298 -15683.392747 -23511.390193  7827.997446   -70.464708 -23124.409394  -316.516091 -9043.762814     0.960204 
   12100     0.991189     5202     0.752298 -15677.152302 -23409.910422  7732.758120   -67.842895 -23022.816746  -319.250781 -8167.377771     1.086042 
Loop time of 0.306764 on 27 procs for 100 steps with 5202 atoms

Performance: 281649.602 tau/day, 325.983 timesteps/s
93.7% CPU use with 27 MPI tasks x no OpenMP threads

MPI task timing breakdown:
Section |  min time  |  avg time  |  max time  |%varavg| %total
---------------------------------------------------------------
Pair    | 0.060647   | 0.095191   | 0.11047    |   5.3 | 31.03
Kspace  | 0.15528    | 0.17274    | 0.20927    |   4.1 | 56.31
Neigh   | 0.014574   | 0.021173   | 0.024797   |   2.1 |  6.90
Comm    | 0.013809   | 0.015576   | 0.020109   |   1.7 |  5.08
Output  | 5.3975e-05 | 6.0223e-05 | 8.1796e-05 |   0.0 |  0.02
Modify  | 0.00033731 | 0.00052088 | 0.00063617 |   0.0 |  0.17
Other   |            | 0.001505   |            |       |  0.49

Nlocal:        192.667 ave         203 max         181 min
Histogram: 2 0 1 3 6 5 3 5 0 2
Nghost:        1849.44 ave        1872 max        1821 min
Histogram: 1 0 3 3 2 5 6 3 2 2
Neighs:        16529.3 ave       17532 max       15425 min
Histogram: 2 3 0 3 6 3 3 2 2 3

Total # of neighbors = 446291
Ave neighs/atom = 85.792195
Neighbor list builds = 25
Dangerous builds = 0
unfix    eqmd

group   solvent type 1
5000 atoms in group solvent
group   water   empty
0 atoms in group water
group   ions    type 2 3
202 atoms in group ions
group   wall    type 4 5
0 atoms in group wall
group   flying  type 6 7 8
2 atoms in group flying
group   eq_run  union solvent ions flying
5202 atoms in group eq_run
            
######################################################################
pair_style   lj/cut/coul/long 2.500000 3.500000
kspace_style pppm 0.0001

# LJ (neq? False)
# real lj particles
pair_coeff  * *         1.  1.  2.5   # solvent + ions
pair_coeff  4*5 4*5     0   0   2.5   # wall atoms

        
pair_modify  tail no shift yes mix arithmetic # LB mixing rule
neigh_modify delay 2 every 1 check yes page 500000 one 50000
######################################################################
# dealing with ideal flying particles: force field=simple_lj

# Non-interacting flying lj molecule (trial deletion)
# real lj particles
pair_coeff  * *         1.  1.  2.5   # solvent + ions
pair_coeff  4*5 4*5     0   0   2.5   # wall atoms
# flying particles
pair_coeff  * 6         0   0   2.5   # flying solvent  non-interacting
pair_coeff  * 7         0   0   2.5   # flying cation   non-interacting
pair_coeff  * 8         0   0   2.5   # flying anion    non-interacting

# flying solvetn or ions
set type 6  charge 0.                       # non-interacting
Setting atom values ...
  0 settings made for charge
set type 7  charge 0.                       # non-interacting
Setting atom values ...
  1 settings made for charge
set type 8  charge 0.                       # non-interacting
Setting atom values ...
  1 settings made for charge
        
run 0 post no # making flying moelcule non-interacting
PPPM initialization ...
  using 12-bit tables for long-range coulomb (../kspace.cpp:340)
  G vector (1/distance) = 0.80656374
  grid = 36 36 36
  stencil order = 5
  estimated absolute RMS force accuracy = 8.1571722e-05
  estimated relative force accuracy = 8.1571722e-05
  using single precision KISS FFT
  3d grid and FFT values/proc = 4913 2592
Neighbor list info ...
  update every 1 steps, delay 2 steps, check yes
  max neighbors/atom: 50000, page size: 500000
  master list distance cutoff = 3.8
  ghost atom cutoff = 3.8
  binsize = 1.9, bins = 11 11 11
  1 neighbor lists, perpetual/occasional/extra = 1 0 0
  (1) pair lj/cut/coul/long, perpetual
      attributes: half, newton on
      pair build: half/bin/atomonly/newton
      stencil: half/bin/3d
      bin: standard
Per MPI rank memory allocation (min/avg/max) = 5.425 | 5.447 | 5.490 Mbytes
Step Temp Atoms Density TotEng PotEng KinEng E_coul E_vdwl E_long Enthalpy Press 
   12100     0.991189     5202     0.752298 -15663.409631 -23396.167751  7732.758120   -67.657627 -23013.241466  -315.268657 -8143.234185     1.087546 
Loop time of 2.57719e-06 on 27 procs for 0 steps with 5202 atoms

# done post_propagate after NEMD
# selected salt 5001/5166
#The center of bimodal dist. on a positive side=0.800000
set type 7 type 2
Setting atom values ...
  1 settings made for type
set type 8 type 3
Setting atom values ...
  1 settings made for type
run 0 post no # lj type change (reject_delete)
PPPM initialization ...
  using 12-bit tables for long-range coulomb (../kspace.cpp:340)
  G vector (1/distance) = 0.80656374
  grid = 36 36 36
  stencil order = 5
  estimated absolute RMS force accuracy = 8.1571722e-05
  estimated relative force accuracy = 8.1571722e-05
  using single precision KISS FFT
  3d grid and FFT values/proc = 4913 2592
Per MPI rank memory allocation (min/avg/max) = 5.425 | 5.447 | 5.490 Mbytes
Step Temp Atoms Density TotEng PotEng KinEng E_coul E_vdwl E_long Enthalpy Press 
   12100     0.991189     5202     0.752298 -8255.220746 -15987.978866  7732.758120   -67.657627 -15605.052582  -315.268657 29488.095903     5.458331 
Loop time of 2.89719e-06 on 27 procs for 0 steps with 5202 atoms

set atom 5001 charge 1.000000
Setting atom values ...
  1 settings made for charge
set atom 5166 charge -1.000000
Setting atom values ...
  1 settings made for charge
run 0 post no # charge return (reject_delete)
PPPM initialization ...
  using 12-bit tables for long-range coulomb (../kspace.cpp:340)
  G vector (1/distance) = 0.80673798
  grid = 36 36 36
  stencil order = 5
  estimated absolute RMS force accuracy = 8.2278886e-05
  estimated relative force accuracy = 8.2278886e-05
  using single precision KISS FFT
  3d grid and FFT values/proc = 4913 2592
Per MPI rank memory allocation (min/avg/max) = 5.425 | 5.447 | 5.490 Mbytes
Step Temp Atoms Density TotEng PotEng KinEng E_coul E_vdwl E_long Enthalpy Press 
   12100     0.991189     5202     0.752298 -8261.463533 -15994.221653  7732.758120   -69.918291 -15605.052582  -319.250781 29479.773156     5.458030 
Loop time of 2.66263e-06 on 27 procs for 0 steps with 5202 atoms

run 0 post no # return_position back to old
PPPM initialization ...
  using 12-bit tables for long-range coulomb (../kspace.cpp:340)
  G vector (1/distance) = 0.80673798
  grid = 36 36 36
  stencil order = 5
  estimated absolute RMS force accuracy = 8.2278886e-05
  estimated relative force accuracy = 8.2278886e-05
  using single precision KISS FFT
  3d grid and FFT values/proc = 4913 2592
Per MPI rank memory allocation (min/avg/max) = 5.425 | 5.447 | 5.490 Mbytes
Step Temp Atoms Density TotEng PotEng KinEng E_coul E_vdwl E_long Enthalpy Press 
   12100     1.003396     5202     0.752298 -15683.392747 -23511.390193  7827.997446   -70.464708 -23124.409394  -316.516091 -9043.762814     0.960204 
Loop time of 2.71378e-06 on 27 procs for 0 steps with 5202 atoms

