LAMMPS data file via write_data, version 28 Oct 2021, timestep = 12000

5202 atoms
8 atom types

-9.525696487171942 9.525696487171942 xlo xhi
-9.525696487171942 9.525696487171942 ylo yhi
-9.525696487171942 9.525696487171942 zlo zhi

Masses

1 1
2 1
3 1
4 1
5 1
6 1
7 1
8 1

PairIJ Coeffs # lj/cut/coul/long

1 1 1 1 2.5
1 2 1 1 2.5
1 3 1 1 2.5
1 4 1 1 2.5
1 5 1 1 2.5
1 6 0 0 2.5
1 7 0 0 2.5
1 8 0 0 2.5
2 2 1 1 2.5
2 3 1 1 2.5
2 4 1 1 2.5
2 5 1 1 2.5
2 6 0 0 2.5
2 7 0 0 2.5
2 8 0 0 2.5
3 3 1 1 2.5
3 4 1 1 2.5
3 5 1 1 2.5
3 6 0 0 2.5
3 7 0 0 2.5
3 8 0 0 2.5
4 4 0 0 2.5
4 5 0 0 2.5
4 6 0 0 2.5
4 7 0 0 2.5
4 8 0 0 2.5
5 5 0 0 2.5
5 6 0 0 2.5
5 7 0 0 2.5
5 8 0 0 2.5
6 6 0 0 2.5
6 7 0 0 2.5
6 8 0 0 2.5
7 7 0 0 2.5
7 8 0 0 2.5
8 8 0 0 2.5

Atoms # charge

2780 1 0 -8.154287088999066 -8.51840883328018 -8.547158757573671 -1 -4 0
1355 1 0 -9.271741554645018 -8.182399067016075 -8.230437722262012 1 3 -6
2881 1 0 -8.305617089873714 -7.9606042017524254 -7.717202515984914 3 -4 -1
3376 1 0 -8.93741379745059 -8.697601086011492 -9.35054331885762 0 -2 -2
2887 1 0 -7.794779869246504 -9.309922425817497 -7.94595512471236 5 -7 -1
2989 1 0 -7.034074250539116 -8.355124973760024 -7.680284241312109 -1 -6 -3
1620 1 0 -7.050101087184389 -8.077318882796666 -8.891629282665491 2 -4 -5
1756 1 0 -5.743954257900703 -7.828553489597408 -8.251770611862748 -5 2 6
349 1 0 -6.8724337808209395 -9.02482842161391 -8.4236393247775 0 1 7
1453 1 0 -6.57367408295905 -9.273362012333084 -7.4321249544969685 -8 2 -2
466 1 0 -5.6383945232809 -8.934422292773291 -7.911454523726717 -8 6 -1
3171 1 0 -5.748609797666918 -9.054856054247342 -9.001881306170645 -4 7 -9
427 1 0 -6.128425721111996 -8.25375300756694 -9.490178256778353 -7 3 3
312 1 0 -7.327120624121321 -7.462083358035995 -8.098597545832298 -7 -5 -3
4658 1 0 -4.798365128343798 -8.33547232145274 -7.715492353805908 11 0 2
1350 1 0 -3.848580589628579 -8.83574768535281 -8.116530405187806 3 -6 5
4114 1 0 -4.841855222118235 -8.400087652939511 -8.94892784322987 -1 6 8
991 1 0 -3.809030313795534 -7.506592282016654 -8.965660004087075 8 11 -3
261 1 0 -4.120072810364308 -7.598763325161113 -7.980212184631428 -2 2 -2
2634 1 0 -3.6690208352949294 -9.519172382704747 -8.983808998158544 8 2 -1
256 1 0 -4.84305147792124 -9.436330200979384 -7.621430517476905 3 -4 5
4420 1 0 -9.184126807402118 -7.150285806997692 -8.00149312867019 0 1 3
3195 1 0 -8.404792401051528 -7.260577707053726 -8.90734188120688 6 1 7
4559 1 0 -8.230852209791442 -6.713369716935897 -7.868497778639821 -4 2 4
3980 1 0 -7.910285567615463 -5.506333221748974 -8.201656497925024 0 2 -5
1232 1 0 -8.82476248465404 -5.809203721625264 -7.890637322153157 0 -6 1
4040 1 0 -8.500102182790737 -6.135697149350464 -8.896576584081942 9 1 -4
1665 1 0 -9.231685721067342 -6.712018353937863 -9.263255578108343 4 5 -11
940 1 0 -7.464974910937974 -5.499746083202612 -9.39977185783681 -2 6 5
1582 1 0 -7.5621623285108654 -6.664741752526121 -8.945443314983972 5 4 -1
2704 1 0 -7.459253296887279 -6.0720779560656535 -7.473321079962886 7 -3 -4
1603 1 0 -5.398011811159736 -6.629242472353228 -8.804955441489696 0 3 -4
538 1 0 -5.7424277026361485 -6.821294582473036 -7.56147068367019 1 -5 1
4010 1 0 -6.605848184241806 -6.815946647257801 -8.53893225594187 6 3 2
1764 1 0 -5.712114857974001 -5.813171431865552 -8.16680355192224 -1 -8 10
4150 1 0 -6.7250252116506894 -5.765950950400274 -8.57987526548854 -2 4 -8
84 1 0 -4.818122542020866 -6.756219935626923 -7.888724456872357 -1 -6 -2
4680 1 0 -4.643169224679449 -5.747235694926269 -8.576330154458386 -1 -2 2
1981 1 0 -3.817187000161946 -6.44458604116597 -8.303726078530373 -4 11 2
736 1 0 -4.051312482187367 -6.167284774473441 -9.21063541055633 8 3 -2
4782 1 0 -8.160344650933627 -4.586430924423144 -7.835455292239795 5 -2 -3
1427 1 0 -9.404598572068771 -3.5807762209279095 -7.795277162695737 5 -2 2
1112 1 0 -9.047779188990718 -4.543727490364706 -8.548673993856955 8 -3 -2
3143 1 0 -8.381673604170086 -4.9210316614777145 -9.38329873818321 6 1 -1
1345 1 0 -8.398116875325245 -3.5105396255782306 -7.869170031997275 10 3 5
5047 2 1 -9.0557713636894 -3.5900772244546806 -9.026019203845804 -1 4 4
2770 1 0 -7.3443549428217 -3.7636735346840937 -8.425049941579903 3 1 0
4784 1 0 -6.080523141465945 -3.4542514841492724 -9.223431143425428 2 -4 -3
4125 1 0 -6.488122668316479 -4.771778116550914 -8.251174607375782 -1 -3 1
2860 1 0 -7.097206167211011 -4.207891077486414 -9.283602554615808 2 4 4
888 1 0 -5.413946000844772 -3.873896836004591 -8.488922198264998 3 6 4
4996 1 0 -5.470265015238648 -4.609319397405547 -7.587636602563389 1 2 0
90 1 0 -7.2359427827895235 -4.92108303421074 -7.439940998788056 -1 5 -10
2466 1 0 -3.251767882247354 -4.847062456236943 -8.966754239243249 -4 0 4
2160 1 0 -3.420231372986933 -5.245298431487869 -8.07309270862684 -6 2 3
1009 1 0 -5.267655853893199 -4.9250283520143165 -8.589349904614 -6 -7 -1
834 1 0 -3.4332992466626044 -4.1742976932319165 -7.693430997470657 1 -7 -4
431 1 0 -4.337144036388879 -4.593494322809088 -8.191206371215472 -4 1 0
2865 1 0 -4.353185483430038 -3.4495618461909068 -8.558604935846772 2 2 -12
2438 1 0 -4.428561933387941 -4.360802963354172 -9.323613622609653 -8 0 5
1936 1 0 -4.6777747737307855 -3.8227892456358945 -7.5760915797991695 -4 -4 -1
420 1 0 -3.62361249021284 -3.2137022790770096 -7.86855484416237 6 6 1
2980 1 0 -3.645607254028057 -3.576835962309378 -9.29780894487162 -2 -1 4
992 1 0 -8.717698637587597 -9.465578855535371 -6.3292222496174615 -3 3 1
3414 1 0 -8.573289267126025 -8.995126064990151 -7.388125680565859 -5 -7 -2
2637 1 0 -9.508510539352331 -8.037061961799568 -6.164235334583922 -4 0 -1
4439 1 0 -8.319484721800738 -8.555672527310959 -5.652535112610832 -1 1 -8
4172 1 0 -8.244258563475094 -8.064732438915156 -6.637791348637717 5 -1 4
4645 1 0 -7.747637293135353 -9.399607627554373 -6.474230490794393 -2 -6 4
2285 1 0 -9.02956622575762 -7.52945111781526 -6.93429485424186 3 4 4
4876 1 0 -8.066145521487885 -7.519361813396319 -5.826586266883256 -5 5 3
3926 1 0 -7.07791441649898 -8.779735141255086 -5.787941688556627 6 12 -2
3154 1 0 -5.816289126055537 -7.852419143056864 -6.900556749088557 -1 3 0
2010 1 0 -6.926323300827529 -8.13450195881236 -6.617303036086069 -4 -6 3
243 1 0 -6.182172588117163 -9.129633898785752 -6.262881016417782 -2 0 0
1526 1 0 -5.321827639120812 -8.79964509270126 -6.849803125269289 4 -2 0
4166 1 0 -7.044836163953281 -7.4483871058631745 -5.480923526109244 -3 -4 7
3096 1 0 -3.3738792725286633 -8.918685458461033 -5.682366249719321 0 -1 -7
3268 1 0 -5.142390138916931 -9.279276026706334 -5.701681229673825 -4 1 -1
594 1 0 -3.322298449860094 -8.482752675158844 -6.684211761719011 3 -6 -3
1030 1 0 -4.2383995007344994 -8.296806922232154 -5.674230275074446 -4 -2 0
1719 1 0 -4.328251807365545 -7.860600045598162 -6.748959905551252 9 0 4
1541 1 0 -4.28252348082051 -9.100258716913373 -6.304602183795675 -5 4 -2
1655 1 0 -3.3485602322416286 -7.449318640160289 -6.846350580373257 0 -5 1
3714 1 0 -5.267811669119362 -8.275334465306218 -5.950680371968135 12 1 2
3254 1 0 -9.162686074429029 -6.950144526985686 -5.946968002427303 0 -6 5
2484 1 0 -9.216090040896878 -6.5055856054061065 -7.121626416871051 5 3 3
4787 1 0 -9.166510654882346 -5.861564443827134 -6.100919238218016 -4 -1 -1
847 1 0 -7.677419202155775 -7.195634123835497 -6.981303751697184 10 3 -6
2031 1 0 -8.350987160295709 -6.570359093403968 -6.3941700176662435 1 3 3
2711 1 0 -7.758680276776491 -6.585283961670783 -5.350280206539398 -1 -6 1
2145 1 0 -6.542490578073241 -7.1220094381154535 -7.124524555853864 -3 -9 -2
758 1 0 -5.946810443160451 -7.349251599883749 -6.0215652868242415 -5 8 -1
1230 1 0 -6.4261385072990755 -5.606068894969338 -7.38637688734334 1 4 8
1697 1 0 -5.702084613716641 -6.390045136947344 -6.252724846078709 3 -1 -5
844 1 0 -7.20134114823213 -6.464887745062417 -6.167998051797996 1 0 -3
2389 1 0 -6.400753766255931 -5.556540505021136 -5.754341579160121 -4 2 1
4256 1 0 -5.029344848436548 -7.132761123967833 -6.725557951737568 7 -6 1
3702 1 0 -4.866687824785927 -7.335999415290631 -5.697067750929807 1 4 2
706 1 0 -5.090290026413097 -5.891721734608712 -7.014156867295434 -3 -5 7
1572 1 0 -4.069569968185813 -6.446087973694265 -7.16442264315829 -2 -4 -1
1491 1 0 -4.6015675266304585 -6.44700321846979 -6.179811058061208 3 0 -2
3152 1 0 -3.2582747296481696 -6.848647045859362 -5.897363708763652 -6 2 -1
4071 1 0 -9.313748027917908 -4.825201235601598 -7.344217061071043 1 -1 0
3449 1 0 -8.283207185777231 -5.282964681335658 -7.048267049529471 -3 6 7
3445 1 0 -7.716933193285748 -5.286331827711818 -6.006586867812106 -4 3 -5
4904 1 0 -9.413925772286522 -3.946305135781213 -6.292759596615759 -1 -6 6
1636 1 0 -8.59689180652806 -4.217887604273805 -6.912536807118839 9 4 4
2496 1 0 -8.738632738889747 -4.873632131380528 -5.984420137221906 -1 -6 -1
2516 1 0 -7.718511575544218 -4.008268402192873 -6.439370188523276 -2 5 1
714 1 0 -7.419601031275638 -4.4483302224236905 -5.413639849487178 -3 -5 -6
2417 1 0 -7.351141113716154 -3.4349699164309233 -5.513981591212089 3 -4 7
4997 1 0 -5.65609534280778 -3.607316002717245 -5.365565033903683 7 1 5
627 1 0 -5.722666895295597 -5.052307307122002 -6.6300400608689944 -8 2 5
3015 1 0 -6.802615798846943 -3.8933127750173546 -7.404166955227184 -4 0 3
4234 1 0 -6.752448611431334 -4.474837284674385 -6.544505972288095 -8 -3 -10
1908 1 0 -6.32353735270177 -4.494331177655179 -5.516024767835886 -3 9 4
948 1 0 -6.369805254427427 -3.4803931089431988 -6.283352956464429 1 0 2
4365 1 0 -5.793355226679928 -3.807476206146228 -7.065678327665599 3 2 -6
2851 1 0 -5.315640400612641 -4.346995348149319 -6.080882084986392 0 -1 -5
402 1 0 -5.230668582952796 -5.266285878510907 -5.70869039083398 -1 -2 5
4990 1 0 -4.369995288638779 -4.226373132153849 -5.332579731977443 -7 2 -1
2691 1 0 -4.240324847108813 -5.258396577521289 -5.322421558166972 7 8 5
2186 1 0 -3.653318706097833 -3.3535361361289704 -5.302553210113717 0 5 -3
528 1 0 -4.048548911014615 -5.166386213215555 -7.187228545552885 3 4 7
4964 1 0 -4.318490458098819 -3.56275772606586 -6.1521888438409125 -1 1 2
3313 1 0 -4.098801257044016 -4.5846345030876305 -6.271622940992397 1 8 0
1524 1 0 -3.5069910077705178 -3.5134614275762166 -6.804169493524524 -3 -2 9
2472 1 0 -5.272283102748932 -3.2656353521238293 -6.3614195630115375 -3 0 4
1120 1 0 -8.283567121931078 -9.36790870917695 -3.9054792763837076 -2 1 -7
1111 1 0 -8.686024801933137 -8.690676926377293 -4.575491405771147 2 -7 9
2356 1 0 -7.642810329447067 -8.173639870189389 -4.922896768333058 -2 5 -4
1339 1 0 -7.620354633076683 -8.749644047027843 -3.4577655010059547 0 2 -1
3231 1 0 -8.938148722829055 -7.613784145722649 -5.132663996394134 10 -3 -4
2071 1 0 -9.186193968864144 -7.837689115158715 -3.5593728779196168 0 -1 4
1337 1 0 -8.117845623931109 -7.85297044112871 -4.031121499638811 -6 8 -6
818 1 0 -8.726746656941163 -8.755980595774115 -3.2041976329359767 2 -3 5
2255 1 0 -7.198765400532456 -9.46123299712272 -4.9655570938328015 1 4 4
4310 1 0 -6.100450506492098 -8.935327838403262 -5.22121283417448 1 3 -4
208 1 0 -6.897287780044008 -8.578988930299442 -4.263495753157718 -3 9 -6
4817 1 0 -5.871251866214962 -7.7651080479796954 -4.961786776559472 -8 -2 8
4129 1 0 -5.57471475664019 -8.699402370060975 -4.206846948319079 3 8 -6
1351 1 0 -6.486311531334029 -9.133402101891711 -3.2654673601124524 -2 4 -1
2267 1 0 -7.099857737620015 -7.630692588120995 -3.8237535215939977 -8 0 -1
5028 2 1 -3.5586769347357774 -9.008726941617594 -4.20599162903923 4 1 2
2547 1 0 -4.319369529282875 -9.317062982582053 -3.4892956902652115 -3 9 1
612 1 0 -4.2333483213350975 -9.057327283656381 -4.974830090662798 0 -5 2
2850 1 0 -3.446684571375948 -7.982821905714819 -5.02732233980835 -7 -4 5
4383 1 0 -5.289512236535876 -7.770466960671895 -3.9291094146539396 -2 -7 -2
3729 1 0 -4.4740351948241734 -8.090987886704525 -3.522093111440657 -1 3 -4
1082 1 0 -4.8280433080751495 -8.181259348388155 -4.768465782464996 2 5 -1
3582 1 0 -4.030529497450626 -7.650632532102507 -4.237348689062395 2 9 8
1105 1 0 -3.5028104542999055 -8.489923234736192 -3.200343523355861 -5 7 -2
487 1 0 -3.601754715168111 -7.513110121197593 -3.3040404932487584 -1 -2 -4
4322 1 0 -8.784143151653833 -6.200189555896667 -5.171226850566414 0 -3 2
807 1 0 -8.274223423843642 -5.715780443777819 -4.196325156262677 2 8 5
1174 1 0 -8.828483888533361 -6.808801842126475 -4.187424613728694 4 7 8
3737 1 0 -8.983418326120077 -5.9609474640125555 -3.603730381799322 6 -1 1
3351 1 0 -7.139704482956499 -5.35438728137581 -4.933132666047422 3 4 2
125 1 0 -5.981374115905782 -6.579841068656842 -4.632201265639555 -2 2 -3
2781 1 0 -6.684962554441427 -6.406372937727634 -5.262307243650472 -2 10 5
351 1 0 -7.30535444898434 -6.396670524940758 -4.213616793851907 -2 0 0
1474 1 0 -6.335750450921471 -6.902623425800637 -3.758376210393247 3 0 -3
1826 1 0 -6.689634332029336 -5.596929162914956 -3.654536846189096 -5 -3 -1
3413 1 0 -5.624562503930703 -5.640326327147311 -3.7730212250264596 3 3 7
1516 1 0 -3.730776395306997 -5.385117404408293 -4.211911624269878 -6 0 6
2832 1 0 -5.113054764093702 -6.4729708734889275 -5.257830756739758 -3 4 -9
4988 1 0 -3.261366737703426 -6.955133623873352 -4.724970632893082 1 -3 5
3903 1 0 -4.915220138135934 -6.853854384163315 -4.289373116714891 -3 8 3
1121 1 0 -3.698235663903632 -6.597554418052403 -3.7793250207014646 -5 2 13
2788 1 0 -4.003347600882771 -6.2655160784512764 -4.903166502059596 2 -3 -2
4848 1 0 -4.961625184492412 -5.675783597667566 -4.635178383463643 -4 0 -1
999 1 0 -4.678615563692522 -6.1199994248384675 -3.566301595113128 1 5 -3
2127 1 0 -9.134051287773188 -4.235858576418552 -4.720656443909649 -8 -3 7
374 1 0 -8.453547659248443 -3.501782346853358 -5.011246785225336 -6 4 -2
3320 1 0 -8.911721078004913 -4.625511253227937 -3.6547804416921115 6 -8 0
620 1 0 -7.955313895034471 -3.9207219956330768 -4.25082470344744 -3 -4 -1
1547 1 0 -8.349497728725272 -5.093062606843234 -5.110942439659116 0 -3 -4
1007 1 0 -7.680312934064488 -4.8707542804339115 -4.018010638424062 1 -1 4
1379 1 0 -6.24871535356544 -3.4779443504213474 -3.4906667696949865 1 6 -3
272 1 0 -7.1616095549032455 -3.2841146814073086 -4.19173581387693 5 0 2
1921 1 0 -5.9848565124889905 -3.767876899043286 -4.399528941059516 11 0 2
624 1 0 -6.9196117004616085 -4.407916209680116 -4.437530963890832 7 3 -6
4032 1 0 -6.0373154225269845 -4.665238670052567 -3.6834257083381465 4 -1 5
2254 1 0 -5.935257848374562 -5.123232115259992 -4.732783388662742 10 6 2
2409 1 0 -4.0812607517746295 -3.6897481583969576 -4.166952593539042 -5 5 -2
929 1 0 -4.726086953741924 -3.2912619141318937 -5.108223224900256 0 12 -3
587 1 0 -3.358991515100895 -4.525677859447553 -4.986574623323241 -6 -4 -4
4415 1 0 -5.005601931738851 -3.4148005859006694 -3.808138360555219 1 1 1
228 1 0 -3.326906601669884 -4.47000765140916 -3.564534856387155 -4 -8 0
4259 1 0 -4.67291672129793 -4.432281889822936 -4.394917602542711 9 -5 9
1484 1 0 -4.434705645196981 -4.849431892210595 -3.416212017280138 1 -6 3
2604 1 0 -7.762516408623091 -7.668521393648027 -2.1317565733148784 -4 -6 0
11 1 0 -8.24963661936747 -8.485446824601064 -1.6851191395651264 0 -6 0
2783 1 0 -9.355025757606812 -8.419192189652088 -2.4328094320721747 4 7 5
274 1 0 -7.628121698541308 -9.459977470192694 -2.799704755601138 -3 -3 -1
4177 1 0 -7.804603959521727 -9.525215829572241 -1.4542571922174623 3 -8 3
4523 1 0 -7.533311426966871 -7.793767320499967 -1.1550795012299115 4 3 4
353 1 0 -8.586834742814919 -9.432697538239172 -1.9991054399740178 4 6 -3
4260 1 0 -9.289835368059853 -8.227772939563687 -1.4163518688745822 5 -6 -2
2039 1 0 -6.673922359923522 -7.8780891942930245 -2.0030667018488058 -1 6 8
3816 1 0 -5.866120119084303 -8.56027473284543 -2.110684589596189 -7 -6 6
3570 1 0 -7.326698854528526 -8.842044255374288 -2.0542689142242643 -3 -3 3
1780 1 0 -7.201403540869549 -8.042888390823606 -2.9085458526549073 -5 -4 -2
4776 1 0 -5.330016847894457 -7.636416348078596 -2.4459219836555146 2 7 2
2229 1 0 -5.529278830129559 -8.886168528937219 -1.149834411366562 -4 15 4
885 1 0 -6.2031317457433905 -8.02126085549932 -3.094368392267261 0 7 -1
2114 1 0 -4.909189446776825 -8.851102919445886 -2.811639247160312 6 -2 0
1551 1 0 -5.117260838208313 -7.906331867004252 -1.5166290693296556 1 -7 -6
1681 1 0 -4.529474516408569 -9.17087444304174 -1.7799519696794275 -2 1 6
3583 1 0 -4.005518819708444 -7.627442538067106 -1.531206338063021 1 0 -1
2889 1 0 -4.19801432439394 -8.164395853021412 -2.440365778995335 -1 3 0
2706 1 0 -3.4196323570254314 -8.824079119024944 -1.9758646549926346 -1 2 -5
2050 1 0 -8.82701430241616 -7.3157538280435865 -2.3976096004584386 -3 9 -2
2381 1 0 -9.138291729933007 -7.119880193861753 -1.141598895794894 -3 -1 -3
1916 1 0 -8.245621867274986 -6.794387303005297 -1.4368760035671302 -2 3 5
1116 1 0 -7.78712826944681 -6.058588739280971 -2.045288100719377 1 -6 3
4880 1 0 -9.224097259039748 -6.418661070118184 -2.1885311206528075 1 -6 -5
383 1 0 -8.285170594361723 -6.452625352314838 -2.898828926529685 -6 1 3
269 1 0 -8.609518412000938 -5.33410040278983 -2.8421829941518477 -2 -2 -2
4664 1 0 -9.453285158082439 -5.970254676653846 -1.2269630226976023 8 -3 -6
3883 1 0 -7.583553030324846 -5.770344061406995 -3.054657700161216 -2 4 2
2278 1 0 -7.362541438197865 -6.9747662610944925 -3.069603183020239 -2 1 4
1127 1 0 -5.948862559657526 -7.202321774837325 -1.5847385644605285 10 0 0
1887 1 0 -6.945324627584026 -6.89476321644266 -1.7270765598555498 1 3 -2
2228 1 0 -6.281501558634142 -7.046116434458555 -2.749431941612686 -7 -4 -7
3114 1 0 -6.525730027998001 -6.117361707673197 -2.412978046230676 1 -2 3
296 1 0 -6.165118532962233 -6.161163316521657 -1.470805960773503 2 5 -11
504 1 0 -3.629575775165575 -6.91652664024484 -2.0993340861244536 -5 -2 -5
388 1 0 -5.217177176686054 -6.214259763596801 -2.6222559973459774 -7 -3 -5
5022 2 1 -5.207733827314194 -5.931653478865453 -1.1766053696575676 -2 5 7
1935 1 0 -4.763727993294414 -6.890673241201833 -1.7774643861639874 0 1 1
3175 1 0 -4.055718361436784 -6.3039341048482385 -2.803214439136269 1 0 14
2863 1 0 -4.114046599564431 -6.087753553373369 -1.5588073986721716 -4 1 -1
4537 1 0 -4.621422492144777 -7.118890881298121 -3.105926982129743 0 2 6
3941 1 0 -8.22841893108129 -4.981242662756462 -1.8079743916433166 9 8 -1
2035 1 0 -7.947894881466649 -4.31589282126402 -2.7464229540548435 -11 0 3
896 1 0 -8.367543906671921 -3.2928465863865872 -2.17261425064495 7 0 2
4527 1 0 -8.763813280889886 -4.102592310393176 -1.803993626019233 0 8 7
828 1 0 -9.398360237565537 -5.27634755169364 -2.0648166510614634 -5 -4 -2
5177 3 -1 -9.002785311186743 -3.9720308962077344 -2.762044398730495 2 -1 0
1209 1 0 -7.3406098571345355 -3.3705816190743194 -3.047430026811529 5 -9 1
186 1 0 -7.18540938756397 -3.714501355187522 -2.0547266606739902 -2 -2 5
4671 1 0 -5.944192066525184 -4.817404207850626 -2.5883449743860725 3 1 -1
4565 1 0 -5.844271008018475 -4.316994172199072 -1.562297831050535 -2 -7 -9
1588 1 0 -7.000056671803387 -5.1662935292821395 -2.4034296822859647 -1 3 -2
697 1 0 -6.016954972650754 -3.7455098841580816 -2.4715609124960505 -3 1 -6
1036 1 0 -6.860003451682944 -4.329028371956383 -3.0637232017389375 5 -8 -2
1750 1 0 -5.306028365778954 -4.304075398242842 -3.0990946507642527 1 -2 2
4612 1 0 -7.02564204598288 -5.173577325393944 -1.327176924487161 7 2 10
4762 1 0 -6.769901044693511 -3.8973302304601622 -1.1114433355554239 -8 -5 -1
4881 1 0 -5.587683526450771 -3.2789548952359935 -1.2521693248414303 2 1 8
1801 1 0 -3.770981136150374 -5.229869417054285 -2.385828484451764 -1 3 -4
3746 1 0 -4.862960735103401 -3.62439983891259 -2.2561187044138706 -1 -5 -2
144 1 0 -4.911858983555178 -4.91153810031289 -2.4058975474224056 -3 2 -2
3760 1 0 -4.089261022357864 -4.371819060349385 -1.9590399543285137 14 -1 5
100 1 0 -4.161763239631071 -3.6486759300056795 -3.0068005837243366 -3 0 0
1249 1 0 -4.414126137666215 -5.161089069723199 -1.192248364837481 0 -2 -2
2787 1 0 -4.783357094353906 -4.213361342132077 -1.1957021935036316 -1 3 8
4805 1 0 -3.235916553816625 -3.8506120540283093 -2.3983969713673097 3 9 -5
4003 1 0 -3.417334890562927 -5.0961184826162516 -1.4067051918604094 1 -5 3
717 1 0 -9.17675785534001 -8.167292468111173 -0.13034655394680708 5 -1 2
3149 1 0 -7.631551089142706 -8.787998262431834 -0.8093036542579453 -1 0 -11
1454 1 0 -8.04503736981066 -8.343410224870356 0.06853787022064295 -7 -3 -2
4162 1 0 -8.468917721779924 -7.872668889203936 -0.8695584974665432 -2 9 2
613 1 0 -9.03082529635249 -8.819472200810763 0.6509185532708859 4 8 -1
3381 1 0 -8.718756962465264 -8.975369118142696 -0.654873565459343 -7 0 5
2557 1 0 -8.843370100977689 -7.482591616886904 0.8631035202900766 -3 -4 4
4021 1 0 -6.595154667482242 -8.696701655848114 -0.8297904549472143 5 -1 -7
1614 1 0 -6.766912261834222 -7.837284577285078 0.08243214876291105 -7 3 2
10 1 0 -5.924090218511474 -7.8686920261452356 -0.6380217216296261 1 13 -5
4724 1 0 -5.813084033953464 -8.840846179236198 0.06415911748240868 2 2 2
3904 1 0 -7.124359868520752 -8.874818339250542 0.23650193640946246 0 -2 8
958 1 0 -6.429308165132048 -8.818690195323363 1.0414439762419205 5 3 8
4909 1 0 -3.6225012556110685 -9.35633938284302 -0.9881621411861309 1 -4 1
81 1 0 -4.587843256806047 -8.135417177977539 -0.7168578678226515 2 6 5
3137 1 0 -4.841467521049023 -9.208387707890392 -0.03494359725906005 5 -4 1
4581 1 0 -4.149721696039405 -7.639157801276053 0.29224449678256703 1 7 3
1608 1 0 -3.4430686584985026 -7.906798022882971 -0.48453561430464065 -1 -7 3
4382 1 0 -3.7756368168634973 -8.785021993811174 -0.06550459443803258 -5 -2 -3
1617 1 0 -5.207601854320991 -7.7640162094692275 0.16110320343796225 -5 4 0
3295 1 0 -3.3607586962996048 -7.73974958131913 1.053523530596768 3 4 -4
4505 1 0 -4.909743564819571 -8.659584107031195 0.9423473977371839 -1 -2 3
2316 1 0 -8.188491019283855 -5.9763617093986845 -0.7267657869082212 3 1 -4
3088 1 0 -7.607611374069492 -7.401910041881866 0.855823516494605 -5 3 6
863 1 0 -9.451760287768476 -6.132135884406732 0.8635231046021569 -2 0 -6
562 1 0 -8.211297592252274 -6.880304350418114 -0.3225262918716124 -3 0 3
2332 1 0 -9.255897862990421 -7.058026128883307 -0.18289231833432773 -2 3 -2
448 1 0 -8.750108989642246 -6.052373884430838 0.08308499110576044 -3 -8 1
3614 1 0 -7.443936998783882 -5.717800477813419 0.2856228320293345 2 -3 0
4118 1 0 -8.427362466593168 -5.494272699966242 1.0006751317602558 7 4 -4
1151 1 0 -7.144409914116802 -6.179280891447051 -0.9760241253807488 1 -4 -3
628 1 0 -6.808427005203812 -7.175098062370438 -0.8172257485115908 -5 -8 -2
4961 1 0 -6.143558107477064 -6.3496479577547875 -0.4789732023894057 0 -5 0
2121 1 0 -6.905141957038903 -6.758350627256253 0.2380721248970628 0 4 -5
416 1 0 -5.439430087741019 -6.431611580998577 0.4762051505656674 -1 4 6
4795 1 0 -5.79306323552587 -5.512663708075919 0.17287528174382413 4 -7 0
4746 1 0 -5.2868772052083965 -6.906021469916807 -0.7706829114004714 10 1 1
4161 1 0 -4.605168096951749 -6.87476709808719 0.7876902626942484 4 -11 7
2774 1 0 -4.306233845110313 -7.153804966747808 -0.643717089143125 3 2 7
3116 1 0 -4.481231316538054 -6.256655255111752 -0.26984771112092265 6 2 -7
4634 1 0 -3.6727723880645113 -5.781430554518119 -0.6447927727108219 1 2 4
5 1 0 -4.752980585227863 -5.490807185044653 0.380951852395148 2 -3 0
5061 2 1 -3.6826624015944716 -6.572248096663054 0.29500997884135904 3 9 0
3531 1 0 -3.6400682933700392 -5.533632909081585 0.8507803312040033 0 2 3
4610 1 0 -8.242355733623825 -4.440739863797471 -0.7497689586297483 -1 -2 4
419 1 0 -9.49908112388428 -4.179804326586113 -1.018338149587285 13 0 -4
5197 3 -1 -7.612224426461556 -4.362332141961939 0.2399538706275158 -10 6 3
3163 1 0 -8.893832672085411 -4.649231867032215 0.5966030502996659 8 -9 0
5033 2 1 -8.736778317038446 -3.814456655268102 0.03979846527872347 0 -1 -3
1171 1 0 -7.730032470224184 -3.3826026947278995 -0.4165132009228505 -5 9 -5
4963 1 0 -8.92095590791426 -5.126911284887385 -1.0418712488482682 1 1 -2
4668 1 0 -8.729098790140895 -3.3925716417328244 -0.9394674205325899 -2 -3 -5
1054 1 0 -6.766347060862778 -4.932292055362341 -0.16431570648988542 10 3 9
3135 1 0 -6.6238866438210575 -3.872979108316455 0.01605078324503173 0 1 0
4235 1 0 -5.802204285732034 -4.240152047275631 -0.4476107951592547 8 1 2
1939 1 0 -5.971056423470364 -3.6144910762044 1.0287045771551777 -3 1 -2
1626 1 0 -5.490714416004088 -4.7381735928889155 0.7517829126750135 1 0 6
1509 1 0 -6.014465719938376 -5.26335187449046 -0.9189122043832285 -2 3 -6
608 1 0 -3.628027369255816 -4.953836154433066 -0.12465944699803096 4 5 -2
798 1 0 -3.7154060142964798 -4.074885807133506 -0.9000763565497766 1 3 0
3880 1 0 -5.035094428695122 -3.7326707184053176 0.6177433520179253 6 -1 -4
1211 1 0 -4.762143143061706 -4.567371984915696 -0.15250731736112583 -5 0 2
3102 1 0 -4.342739262024642 -4.39511810189737 0.8108884116149038 0 3 -4
83 1 0 -3.783243046475206 -3.5383524516250473 0.2122821044869265 -3 -6 -3
355 1 0 -4.8215718615532825 -3.4109917986899583 -0.3875599107056538 -1 0 3
332 1 0 -8.925121811219434 -9.043064229172812 1.8914275135777399 5 1 -2
4418 1 0 -8.190835104988965 -9.273085398769757 1.0626007580255217 2 6 -1
3840 1 0 -8.006569903623236 -9.231174052098389 2.6950669032943897 1 5 -5
290 1 0 -8.296372995525834 -8.23313729231537 1.1976395115730172 5 4 -1
436 1 0 -8.316562481037776 -8.26589691978327 2.334614099783222 -7 -1 -1
2149 1 0 -9.20303708838462 -8.09023143724349 1.7440509174942531 12 -3 5
397 1 0 -8.945142988756924 -8.688552075321502 3.067558146077397 3 2 -2
1581 1 0 -6.533583192958327 -7.579614050000071 1.255521200683108 -1 7 -2
3731 1 0 -7.36105982921311 -9.071755378527344 1.7963746775752016 -6 -4 -5
2549 1 0 -7.335273190386585 -8.08867831845944 1.800811885058857 1 10 -6
1971 1 0 -6.405123214652993 -8.833820530709927 2.0523393292911676 -1 5 0
3492 1 0 -6.258638401311937 -7.4238800466526635 2.3677982848607413 -3 2 4
3943 1 0 -5.322686600495475 -8.038285133093096 2.1030042144792898 -1 -7 3
898 1 0 -5.382022081755369 -9.068543411998572 2.2123050750532745 2 3 -4
3382 1 0 -6.037962045363172 -9.480105713323917 2.879689322368027 2 -7 0
523 1 0 -7.180302180121926 -8.715042602584115 2.9971381905047947 -8 1 6
972 1 0 -3.41957165975084 -9.269304634695562 2.7687940816689447 -5 -3 2
1685 1 0 -3.2984402272578346 -7.604308229682788 2.168372874390193 -4 0 9
1381 1 0 -4.304162427281644 -7.575782945615279 1.597305790131397 -4 0 0
2058 1 0 -3.907400596845127 -8.529494906702178 1.3310207975884534 -2 4 5
5018 2 1 -4.254796984099614 -8.521079816466491 2.6289980324930786 2 3 -4
3105 1 0 -7.913400412014366 -7.392956522944382 2.860220780960521 -5 -4 -2
1745 1 0 -8.065858989859246 -7.304459514136674 1.8702679970816194 0 0 -5
2166 1 0 -8.79293547382233 -6.343830981595253 1.8853200281843971 1 -2 -5
1839 1 0 -9.368549540992781 -7.138932428452861 2.2973487151836935 -3 -6 -4
3694 1 0 -7.471414617801428 -6.305104246542778 1.3524985864292491 -5 -4 -2
3809 1 0 -7.526637467710043 -5.818438101585669 2.762341214153662 3 -2 -2
4637 1 0 -8.500607152070785 -6.574838116237353 3.082235825485277 -5 2 -4
1706 1 0 -5.487750632388409 -7.365310185444467 1.2024356479792102 -3 1 -2
3609 1 0 -5.300531835307772 -5.75756584783486 1.317287415722228 10 0 5
1255 1 0 -7.162927665791249 -6.639043489562973 2.3176506946111006 8 -1 0
4402 1 0 -6.379141247504999 -6.413165884101645 1.0805380229949546 -7 14 1
4497 1 0 -6.052874847169776 -6.4300738308626135 2.471327543118257 3 5 -5
3312 1 0 -6.691764685290132 -5.753952848774323 2.1053747378248753 11 -5 4
3306 1 0 -5.603861304628287 -5.5028436067266995 2.5210661814846627 6 0 0
1332 1 0 -5.429479218844056 -7.035482188034251 2.9940484696567538 0 0 -4
5194 3 -1 -3.3468139137142603 -6.714880529808299 2.962283453059586 1 6 0
3795 1 0 -4.134840445832654 -6.697256829732255 2.3634828177606644 -2 3 0
908 1 0 -4.771752019455723 -6.101756192657913 2.8742815680899096 -3 3 -6
775 1 0 -3.764584235183391 -6.592420616711502 1.3815676103472008 -1 1 -3
933 1 0 -5.233828137296495 -6.716839155583425 1.9851107858824721 -7 -3 1
4455 1 0 -3.466696808305513 -5.814558862203115 2.2733915073776503 0 6 8
4443 1 0 -9.365634501265932 -3.8707035370671865 1.3291074750797816 -1 5 -2
1023 1 0 -9.14505054294219 -3.710182484574302 3.037528197538724 -3 2 -2
5007 2 1 -9.124975611034067 -5.243382713343394 1.7112673225012638 1 -8 -8
539 1 0 -8.206918288772092 -4.180455168045523 1.1040377814792464 -15 1 -9
4464 1 0 -8.053741844369837 -5.213648344423659 1.9400152865430036 -1 4 1
1682 1 0 -8.977822705546103 -4.393631683925745 2.326818494771434 6 1 -10
107 1 0 -8.125352036027362 -3.6359648676962277 2.2041494830334805 -6 4 -3
4862 1 0 -6.687851674369642 -3.35635848675445 1.8258153226106162 3 0 2
3262 1 0 -6.906291880250592 -4.404398780135235 1.0832262425974684 2 3 4
4582 1 0 -7.402146962483153 -5.261805819828542 1.2399032146083722 7 0 -1
4619 1 0 -7.110094003478762 -4.8347781279897495 2.227920622367316 -4 1 -3
765 1 0 -6.2225997100279855 -5.252634202936358 1.2121874788822975 2 3 -3
861 1 0 -6.05087965604897 -4.422232170385427 2.0286880482540046 -7 1 4
50 1 0 -7.085306808483918 -3.541198400749742 3.0846603028004522 -1 4 5
2102 1 0 -4.246442216329907 -3.349153133919488 1.0765137207904778 2 -8 4
329 1 0 -5.094782885278846 -3.872662524261007 1.6947148308786852 5 -3 -3
335 1 0 -4.3678415567526665 -3.682573764179603 2.322642708338442 -1 0 -2
3463 1 0 -4.263259878688357 -5.040934715748238 2.6537557121935653 4 4 -2
4987 1 0 -4.706045308893592 -4.90903358338857 1.6189936876521078 -3 -5 -5
782 1 0 -3.7071073758870035 -4.459676337343698 1.7484250941801978 -3 6 6
3841 1 0 -5.2145771294449865 -4.44364837457627 2.581373419343088 -7 0 -12
2188 1 0 -5.084025516850354 -3.4809495913137036 3.1717436990851624 3 0 -3
2956 1 0 -8.320217390102853 -8.445101099880212 4.85466025729379 -2 -1 0
245 1 0 -9.248989715344933 -7.942620948799204 3.72025201848288 -3 4 1
559 1 0 -8.275940499108707 -7.589966303626765 4.216939034967347 -2 -1 3
4298 1 0 -9.398221795795077 -9.139284726757479 5.137590007326475 0 -1 2
735 1 0 -9.184776734291146 -7.816536598016683 4.864541138077867 -2 -3 4
3235 1 0 -7.894688477951768 -8.397007639216255 3.622041348004862 -3 -1 8
1040 1 0 -5.824928473352511 -7.6311620171794825 5.0912887182910165 -7 8 -3
1946 1 0 -5.666045338476716 -9.286851866021665 4.71882835644078 0 1 1