LAMMPS data file via write_data, version 28 Oct 2021, timestep = 2000

1516 atoms
11 atom types
1000 bonds
1 bond types
500 angles
1 angle types

-12.380634286499454 12.380634286499454 xlo xhi
-12.380634286499454 12.380634286499454 ylo yhi
-12.380634286499454 12.380634286499454 zlo zhi

Masses

1 15.9994
2 1.00794
3 22.989769
4 35.453
5 60
6 60
7 60
8 15.9994
9 1.00794
10 22.989769
11 35.453

PairIJ Coeffs # lj/cut/coul/long

1 1 0.155354 3.169 9
1 2 0 0 9
1 3 0.234061 2.66425 9
1 4 0.044567 3.99975 9
1 5 0 0 9
1 6 0 0 9
1 7 0 0 9
1 8 0.155354 3.169 9
1 9 0 0 9
1 10 0.234061 2.66425 9
1 11 0.044567 3.99975 9
2 2 0 0 9
2 3 0 1.07975 9
2 4 0 2.41525 9
2 5 0 0 9
2 6 0 0 9
2 7 0 0 9
2 8 0 1.5845 9
2 9 0 0 9
2 10 0 1.07975 9
2 11 0 2.41525 9
3 3 0.352644 2.1595 9
3 4 0.067146 3.495 9
3 5 0 0 9
3 6 0 0 9
3 7 0 0 9
3 8 0.234061 2.66425 9
3 9 0 0 9
3 10 0.352644 2.1595 9
3 11 0.067146 3.495 9
4 4 0.0127851 4.8305 9
4 5 0 0 9
4 6 0 0 9
4 7 0 0 9
4 8 0.044567 3.99975 9
4 9 0 0 9
4 10 0.067146 3.495 9
4 11 0.0127851 4.8305 9
5 5 0 0 9
5 6 0 0 9
5 7 0 0 9
5 8 0 1.5845 9
5 9 0 0 9
5 10 0 1.07975 9
5 11 0 2.41525 9
6 6 0 0 9
6 7 0 0 9
6 8 0 1.5845 9
6 9 0 0 9
6 10 0 1.07975 9
6 11 0 2.41525 9
7 7 0 0 9
7 8 0 1.5845 9
7 9 0 0 9
7 10 0 1.07975 9
7 11 0 2.41525 9
8 8 0.155354 3.169 9
8 9 0 0 9
8 10 0.234061 2.66425 9
8 11 0.044567 3.99975 9
9 9 0 0 9
9 10 0 1.07975 9
9 11 0 2.41525 9
10 10 0.352644 2.1595 9
10 11 0.067146 3.495 9
11 11 0.0127851 4.8305 9

Bond Coeffs # harmonic

1 100000 1

Angle Coeffs # harmonic

1 100000 109.47

Atoms # full

508 170 1 -0.8476 -12.16346645407599 -8.621183219083894 -10.958881799490275 2 1 1
1308 436 2 0.4238 -12.23767530512199 -10.016935629639093 -7.174813768131698 14 6 0
510 170 2 0.4238 -11.293046230260657 -8.400003518575389 -11.398722172514953 2 1 1
916 306 1 -0.8476 -6.65649767063801 -4.703359365922347 -10.85678186783626 -14 -2 2
1432 478 1 -0.8476 -11.47472638237673 -8.319974283207724 -6.109435329681322 5 -12 9
319 107 1 -0.8476 -10.55480788357247 -7.024321954223065 -12.288770122606211 -12 -9 0
222 74 2 0.4238 -7.064378264801328 -9.84009594106268 -10.47817449662657 -1 -26 21
1434 478 2 0.4238 -11.429667416893363 -7.321086450026339 -6.1237084015283365 5 -12 9
221 74 2 0.4238 -7.736255368725494 -8.600697310506648 -9.654082397466015 -1 -26 21
948 316 2 0.4238 -8.024323333736042 -8.92608595579099 -5.228659050808883 -19 18 -3
918 306 2 0.4238 -6.187144925880755 -5.3657274249896005 -11.440724204247257 -14 -2 2
1010 337 2 0.4238 -8.456700595606161 -12.36651910208121 -12.178938839429417 0 1 7
1433 478 2 0.4238 -10.618279709211626 -8.687109749951034 -5.74650062098806 5 -12 9
1011 337 2 0.4238 -7.652525610642032 -12.082213273556398 -10.786413143490131 0 1 7
320 107 2 0.4238 -10.120937307936845 -6.178684555754583 -11.977860081650276 -12 -9 0
220 74 1 -0.8476 -7.5235276186283 -8.955919775339671 -10.564343371108757 -1 -26 21
947 316 2 0.4238 -9.0263582334164 -10.193319466916485 -5.46677808390205 -19 18 -3
946 316 1 -0.8476 -8.94207266132524 -9.198188669267171 -5.517981114695157 -19 18 -3
1009 337 1 -0.8476 -7.802584681043167 -11.763494867621297 -11.722315285381526 0 1 7
247 83 1 -0.8476 -9.27436162065552 -5.207234833414291 -10.583262540871214 -4 17 -8
248 83 2 0.4238 -8.302815059301011 -5.005777373800062 -10.707853435725262 -4 17 -8
249 83 2 0.4238 -9.374898091783129 -6.0446970769352735 -10.04608419308737 -4 17 -8
809 270 2 0.4238 -11.758265490269073 -4.79492060828121 -7.067223226813179 -23 6 -1
808 270 1 -0.8476 -11.280765099586233 -5.480631345804152 -6.5178551502935855 -23 6 -1
810 270 2 0.4238 -10.297425914604581 -5.300262085825149 -6.540693743033166 -23 6 -1
197 66 2 0.4238 -11.226772462033118 -11.856640066769726 -8.536688087684835 11 17 13
1124 375 2 0.4238 -12.037249404421551 -4.935009945811822 -4.71386580382174 -9 6 -19
820 274 1 -0.8476 -9.541135786297021 -11.739844070411024 -5.718852011232775 2 -2 17
344 115 2 0.4238 -6.311712840607062 -7.937421755021225 -11.502192337015085 5 -2 -19
1228 410 1 -0.8476 -6.628823253364552 -9.057336382785802 -4.381789534605486 11 -1 9
1140 380 2 0.4238 -8.757501302252303 -9.197585846272112 -11.97762783890674 1 -8 -2
821 274 2 0.4238 -9.489167674637391 -11.564784649918776 -6.70204280799189 2 -2 17
806 269 2 0.4238 -8.703301680190298 -6.844176918723462 -8.245301883102636 -2 5 18
663 221 2 0.4238 -4.475840933777884 -8.53633702562287 -8.61597274308805 2 -11 7
708 236 2 0.4238 -5.831093445064731 -4.793596353578593 -5.147362781245708 14 10 16
807 269 2 0.4238 -10.16024664480562 -7.580653673607771 -8.284910590515441 -2 5 18
805 269 1 -0.8476 -9.397173260990842 -7.2499352549878555 -8.840208288187922 -2 5 18
345 115 2 0.4238 -4.933318368126989 -7.064037172301774 -11.43986571119034 5 -2 -19
822 274 2 0.4238 -10.336255626753276 -12.314193976028553 -5.524128353972869 2 -2 17
706 236 1 -0.8476 -6.685513673900441 -5.263168465126422 -5.3698016741701675 14 10 16
343 115 1 -0.8476 -5.787180463680409 -7.2073670543572845 -11.940253104948757 5 -2 -19
661 221 1 -0.8476 -4.702365989919964 -7.875938654338513 -7.900032092127646 2 -11 7
1095 365 2 0.4238 -9.115890653533516 -8.27247429169942 -4.219976929131553 6 -6 12
1230 410 2 0.4238 -5.8978816966145295 -9.238963891568956 -5.039624344473689 11 -1 9
662 221 2 0.4238 -4.979310011444143 -8.363719679257237 -7.072153722327375 2 -11 7
1237 413 1 -0.8476 -6.837208401902057 -5.991084500167988 -8.249832275104012 -14 -18 12
1084 362 1 -0.8476 -7.7449439637300115 -12.378705222582202 -9.017755291111042 -15 10 16
1238 413 2 0.4238 -6.651075389610469 -5.223687011756284 -8.863400955114853 -14 -18 12
1219 407 1 -0.8476 -4.735535712289808 -10.181769880792393 -5.979158170608395 1 -12 -13
1239 413 2 0.4238 -6.017358475957758 -6.557557453499698 -8.166373055389307 -14 -18 12
707 236 2 0.4238 -6.905587025363142 -5.115770923226561 -6.334090239343295 14 10 16
1220 407 2 0.4238 -4.719000540673345 -11.167682930052433 -6.145633339843567 1 -12 -13
1229 410 2 0.4238 -6.240812825500121 -8.989857008566613 -3.4626019564875303 11 -1 9
1125 375 2 0.4238 -12.132782810499073 -4.835144216669702 -3.0867342446387127 -9 6 -19
1094 365 2 0.4238 -8.761558579809257 -6.950753657521814 -3.3288211836964976 6 -6 12
866 289 2 0.4238 -12.000401437317164 -9.885477086113733 -3.1724246500363 6 -6 -9
1194 398 2 0.4238 -11.619388948318976 -6.772380086382227 -1.4543982067929786 9 -16 20
1093 365 1 -0.8476 -9.45269246848443 -7.649338119170714 -3.5140897645182605 6 -6 12
269 90 2 0.4238 -9.14203507720011 -11.838975567608971 -2.3667457931875724 -20 -24 3
209 70 2 0.4238 -12.092064272176206 -12.221226397537356 -4.119534152233054 8 17 10
270 90 2 0.4238 -8.80317005708634 -12.038374656394943 -3.951695978819263 -20 -24 3
632 211 2 0.4238 -4.409975374038479 -8.10609076019078 -2.570656201222869 -4 -6 4
631 211 1 -0.8476 -5.053644002279992 -8.76814088408429 -2.1867407670149053 -4 -6 4
783 261 2 0.4238 -6.402662599153375 -8.540193618595234 -0.21496701826933062 23 -5 20
1192 398 1 -0.8476 -11.69323932164572 -5.7805199552193764 -1.3506189216737 9 -16 20
555 185 2 0.4238 -5.799915552800634 -9.764090211293071 4.07652452272329 2 12 3
633 211 2 0.4238 -4.548405312144515 -9.479433497356228 -1.698061560818239 -4 -6 4
914 305 2 0.4238 -6.790066600448664 -4.366615206023543 1.4965584820948798 7 7 9
913 305 1 -0.8476 -7.086083423619511 -5.1645781289953305 0.9715442954896165 7 7 9
595 199 1 -0.8476 -11.302360942215744 -8.91870796825299 -1.7729342343102097 -4 -3 7
596 199 2 0.4238 -10.84165773888031 -8.24705477811559 -2.3531470976216067 -4 -3 7
268 90 1 -0.8476 -8.47642823031191 -12.199205575604854 -3.0203613565625336 -20 -24 3
781 261 1 -0.8476 -6.072266528259288 -8.112453669085923 0.6263935195990431 23 -5 20
597 199 2 0.4238 -10.61995537977825 -9.443282189937044 -1.2638604890504865 -4 -3 7
782 261 2 0.4238 -5.080169104184229 -8.221558893428021 0.6884363012750239 23 -5 20
885 295 2 0.4238 -11.398344629104646 -7.347053413422427 1.9720893657970375 -8 -9 14
1193 398 2 0.4238 -10.865324730568094 -5.428510657210297 -0.913975506922597 9 -16 20
607 203 1 -0.8476 -10.510262922207296 -11.508296938371341 -0.9095175369995374 1 23 3
304 102 1 -0.8476 -6.604414138170169 -11.854397826518317 1.878226826254739 9 -11 -1
1051 351 1 -0.8476 -6.411758730316503 -11.951641785736367 -0.8834280385375592 1 11 -19
306 102 2 0.4238 -7.324585475352196 -12.251129019712033 2.4474092536471925 9 -11 -1
305 102 2 0.4238 -5.802197725586289 -11.660392624954863 2.4428697656379708 9 -11 -1
401 134 2 0.4238 -4.703295971848188 -12.05939227276814 -3.504239417459372 -21 3 -23
554 185 2 0.4238 -6.022106549632551 -9.427776311682429 2.494063887087119 2 12 3
608 203 2 0.4238 -11.448075305836019 -11.854855704632772 -0.9299236598799183 1 23 3
1053 351 2 0.4238 -7.201482896426568 -11.971759167887306 -1.496569448446465 1 11 -19
883 295 1 -0.8476 -12.299863994128144 -7.6038758141557805 2.3203952914119856 -8 -9 14
8 3 2 0.4238 -4.394359024536777 -4.319886122751278 -2.7905584500343306 2 -5 10
1001 334 2 0.4238 -5.7379217863804435 -6.161965946125275 3.8325233857057626 1 -9 -26
179 60 2 0.4238 -8.887556258726827 -4.599555737038551 0.2393988919810841 1 -13 10
1052 351 2 0.4238 -6.726091441920783 -11.971080384913284 0.06569172364612896 1 11 -19
553 185 1 -0.8476 -5.396525944472707 -9.334447188967065 3.268628483165257 2 12 3
178 60 1 -0.8476 -9.134209777617261 -4.60317145669133 -0.72970367725401 1 -13 10
915 305 2 0.4238 -6.527582641018843 -5.9550112049430775 1.2231450922095615 7 7 9
457 153 1 -0.8476 -4.223269043998343 -6.794267811918123 3.1213976607995644 -5 -2 -2
9 3 2 0.4238 -4.682291160294512 -5.170884102346878 -1.4269044034033787 2 -5 10
636 212 2 0.4238 -7.3393799423412025 -5.931582735163101 -3.7818831955332577 0 -10 6
7 3 1 -0.8476 -5.106562753497659 -4.699669506962907 -2.2001843617710346 2 -5 10
635 212 2 0.4238 -6.709447857915767 -5.649820320900085 -2.3018645788697434 0 -10 6
459 153 2 0.4238 -4.63144805955665 -7.707015231598668 3.1042579072509344 -5 -2 -2
609 203 2 0.4238 -10.17335720260758 -11.51363778176665 0.03201143157788344 1 23 3
180 60 2 0.4238 -8.424519033533997 -5.075421023138846 -1.2525138185975866 1 -13 10
634 212 1 -0.8476 -7.5540189776107995 -5.810102160288587 -2.8127675857612324 0 -10 6
846 282 2 0.4238 -9.550101039430801 -9.783876055020905 2.4164072458546446 0 -1 3
239 80 2 0.4238 -8.999910803189785 -6.700032972369139 1.1144519527037637 14 21 14
845 282 2 0.4238 -9.032996018746728 -11.310164383379172 2.1523968322809353 0 -1 3
844 282 1 -0.8476 -9.550072549355576 -10.54531023057985 1.7681565069287757 0 -1 3
284 95 2 0.4238 -4.8889105218968645 -11.357155879688776 -0.6789331375073377 -3 8 10
56 19 2 0.4238 -12.09967673513053 -10.325849832505655 3.8389566907608774 4 5 10
238 80 1 -0.8476 -9.755287875627173 -6.906375192932753 1.7364166449065586 14 21 14
240 80 2 0.4238 -9.414907416956545 -6.934827854148275 2.6762795134384465 14 21 14
224 75 2 0.4238 -12.089434595149164 -4.7731521642409 11.363622052365638 5 10 -9
1341 447 2 0.4238 -10.849613090079544 -9.873300926943601 9.121775276758324 -7 0 -18
1340 447 2 0.4238 -10.26113259834753 -9.931824267832704 10.64391883531107 -7 0 -18
1339 447 1 -0.8476 -11.048303148960034 -10.142306410699 10.064202429720833 -7 0 -18
223 75 1 -0.8476 -11.959732285145636 -5.496546530845755 10.685470948187518 5 10 -9
1300 434 1 -0.8476 -10.421043932608278 -4.384092678359123 8.66127841886006 -2 11 -9
949 317 1 -0.8476 -10.624959092325133 -6.253149724334625 6.291580911021224 -12 9 -11
843 281 2 0.4238 -9.034906908715614 -5.222753365955672 9.327463109109136 -7 -8 7
841 281 1 -0.8476 -8.113997202084173 -5.429179815646912 9.658106049764278 -7 -8 7
1002 334 2 0.4238 -6.608334543589792 -4.862078722308561 4.300850514396988 1 -9 -26
842 281 2 0.4238 -7.898361626168775 -6.386911087612267 9.46767493925896 -7 -8 7
1134 378 2 0.4238 -5.5538845211531 -6.453757749764371 5.900182688092645 -4 6 -20
1368 456 2 0.4238 -10.576519907152365 -10.986539712366504 5.628783089122038 3 -3 -6
1367 456 2 0.4238 -11.660397082245927 -9.817406010377898 5.982324052043005 3 -3 -6
165 55 2 0.4238 -8.095513667824463 -7.133626391034598 4.517050212377452 -8 -2 -3
950 317 2 0.4238 -10.023731036524705 -6.628268718088227 5.586016002762879 -12 9 -11
1302 434 2 0.4238 -10.992520297951966 -4.8910750301073875 9.306565261088782 -2 11 -9
1132 378 1 -0.8476 -4.912484062084409 -6.6416188983448095 6.644040624957391 -4 6 -20
1000 334 1 -0.8476 -6.430937185197835 -5.831046832355217 4.473019291708024 1 -9 -26
951 317 2 0.4238 -10.191141741253814 -5.45476679790967 6.709191641856535 -12 9 -11
1133 378 2 0.4238 -4.636908345511493 -7.602366144427671 6.611877374512922 -4 6 -20
225 75 2 0.4238 -11.372124605939154 -6.209929687675431 11.067324733757538 5 10 -9
164 55 2 0.4238 -8.861442162906515 -8.497167864099735 4.986905794396019 -8 -2 -3
163 55 1 -0.8476 -8.969176277409705 -7.620167091201831 4.518636577095382 -8 -2 -3
1366 456 1 -0.8476 -11.459931495802309 -10.589716953421938 5.379530090932246 3 -3 -6
1473 491 2 0.4238 -6.762378560391826 -11.30626892995686 9.82071076719334 3 0 -16
1514 0 4 -1 -8.554760512880653 -10.028959801835425 6.362517645443457 -3 -1 -13
1472 491 2 0.4238 -7.3552611220536095 -11.031913859595106 11.317331802938263 3 0 -16
353 118 2 0.4238 -4.648402205763403 -7.003110888565799 9.814275444127528 -5 -7 1
1426 476 1 -0.8476 -4.7141568898790736 -10.157669434159478 8.438224835526505 -3 11 -20
945 315 2 0.4238 -6.657968893518289 -10.671328819574088 6.167886814606678 -8 11 -3
354 118 2 0.4238 -4.9705862344346805 -7.873031546039462 11.15818476599257 -5 -7 1
1428 476 2 0.4238 -4.907899148084629 -9.405836871367905 9.068481419052809 -3 11 -20
1149 383 2 0.4238 -4.234707357519071 -4.278075951483752 9.35509257967557 -3 -2 -1
1427 476 2 0.4238 -4.823525745090733 -11.029475578994322 8.915724063091812 -3 11 -20
1342 448 1 -0.8476 -11.113288047902596 -8.999226465321064 7.59251834222496 -7 13 0
489 163 2 0.4238 -8.552326481534067 -12.027870195000743 7.3405149666181515 5 6 -3
943 315 1 -0.8476 -5.6917124863013955 -10.92385632979681 6.116995922500138 -8 11 -3
352 118 1 -0.8476 -4.555384262729163 -7.898952099584006 10.248818599629999 -5 -7 1
321 107 2 0.4238 -9.856385321977031 -7.6472807180214755 12.120161693378396 -12 -9 -1
944 315 2 0.4238 -5.238031032496267 -10.680611647294882 6.9743266186858826 -8 11 -3
864 288 2 0.4238 -6.128483684168511 -12.351104554782843 5.078963420695921 5 -14 22
1344 448 2 0.4238 -11.043445802270991 -8.011259540224763 7.730555694610352 -7 13 0
1445 482 2 0.4238 -5.219210796157006 -5.963094259107689 8.31407658233227 -3 -8 5
1446 482 2 0.4238 -6.366407901587928 -5.588411012032827 9.414170356343519 -3 -8 5
1471 491 1 -0.8476 -7.193355747978746 -10.62868987961297 10.416660952843365 3 0 -16
1444 482 1 -0.8476 -5.392074857859753 -5.527446993819232 9.197445430813413 -3 -8 5
1343 448 2 0.4238 -10.216459210910614 -9.365296205148624 7.344119434118678 -7 13 0
119 40 2 0.4238 -11.64155160668092 -11.605490638702378 10.81764996235417 15 16 -16
1138 380 1 -0.8476 -9.11269196173824 -9.254982215108848 11.85060442037662 1 -8 -3
423 141 2 0.4238 -4.482115787447152 -12.294687511216853 9.661160273495199 -22 -15 -24
1139 380 2 0.4238 -8.51277099815054 -9.836147081183539 11.300737344093935 1 -8 -3
404 135 2 0.4238 -7.930742740984169 -8.531709498967675 8.128193263989054 -1 1 15
405 135 2 0.4238 -7.390751581880691 -8.614579000542172 9.667088168448366 -1 1 15
403 135 1 -0.8476 -7.750756584800117 -8.006233738290899 8.959752968500474 -1 1 15
95 32 2 0.4238 -7.655124074659479 0.09572893508212132 -9.51703847865377 -10 -4 15
150 50 2 0.4238 -9.470117187713765 -0.46625775526184654 -12.368029351579843 -8 -2 -4
672 224 2 0.4238 -5.0373028116922125 -1.8291088851171917 -10.27276001202287 3 4 19
840 280 2 0.4238 -7.748394925709043 2.2578749184749647 -9.133083284428249 27 0 12
898 300 1 -0.8476 -12.068122624707886 1.651312417824892 -11.26493179976622 17 5 -8
701 234 2 0.4238 -5.664688779219366 0.029000573192170975 -9.6886432228715 11 -8 -14
96 32 2 0.4238 -7.6545515194393925 -1.5226047325508176 -9.73533342031078 -10 -4 15
700 234 1 -0.8476 -4.7957308751733905 0.49431052435455847 -9.857196202087659 11 -8 -14
899 300 2 0.4238 -11.522501824100177 2.468789253814686 -11.080430202055748 17 5 -8
702 234 2 0.4238 -4.921848744919837 1.189990762975821 -10.564397900248125 11 -8 -14
917 306 2 0.4238 -6.308613497491266 -3.7854325463261294 -11.047567482521139 -14 -2 2
148 50 1 -0.8476 -10.4011547013695 -0.5327180572210306 -12.009193762292885 -8 -2 -4
1486 496 1 -0.8476 -7.794002457362533 3.724119697180715 -10.431733665921492 -2 -4 -2
279 93 2 0.4238 -4.90518304903042 3.436115849236492 -12.013924350903276 -17 -4 -15
900 300 2 0.4238 -11.466646664033705 0.9084738489395363 -11.55891892118411 17 5 -8
838 280 1 -0.8476 -7.86041471620163 1.5780668628203642 -8.408291198685328 27 0 12
1487 496 2 0.4238 -8.732909799904778 3.5534449216681914 -10.73062525615733 -2 -4 -2
68 23 2 0.4238 -9.624351560856615 2.8513783409067273 -6.004161998774123 -6 -22 11
670 224 1 -0.8476 -4.416765432402937 -2.44775148280433 -10.75465903979327 3 4 19
839 280 2 0.4238 -8.572138707426063 1.8808454295917016 -7.7744259457573355 27 0 12
94 32 1 -0.8476 -7.362042180058468 -0.6468160663906293 -10.119318599418534 -10 -4 15
69 23 2 0.4238 -10.425909179628304 1.5862071898083059 -6.654932696750939 -6 -22 11
1509 0 4 -1 -10.647254063236934 -0.24790839807278608 -5.532094219826046 14 14 8
278 93 2 0.4238 -6.284137755050164 2.7462092915599197 -11.476180534375322 -17 -4 -15
85 29 1 -0.8476 -10.949892545180369 -1.2831805756800456 -8.901769083882964 3 -9 -11
149 50 2 0.4238 -10.369365330427343 -0.8124647562947374 -11.049640845608268 -8 -2 -4
1136 379 2 0.4238 -4.61243532730362 -3.2291654573049957 -6.455867825204414 11 9 -3
1135 379 1 -0.8476 -4.638496756559485 -3.6235447389484765 -5.537283938717748 11 9 -3
86 29 2 0.4238 -10.078854117832716 -1.7282100014616741 -8.693795263168223 3 -9 -11
67 23 1 -0.8476 -10.11926246458816 2.525378837038609 -6.809642232179515 -6 -22 11
277 93 1 -0.8476 -5.373200023735026 2.568051183844128 -11.848286683521286 -17 -4 -15
546 182 2 0.4238 -7.427906637916766 -1.0394910152763828 -6.521126461565367 6 -2 -1
544 182 1 -0.8476 -6.719522466698328 -0.45987731332493986 -6.923930148987604 6 -2 -1
87 29 2 0.4238 -11.08249782578729 -0.5061675946916004 -8.286401250842818 3 -9 -11
1423 475 1 -0.8476 -10.240807188780488 3.8853410906761034 -11.607638398422399 22 -11 0
252 84 2 0.4238 -5.2490291650503025 0.42952467498753144 -6.617655553370033 6 -1 13
152 51 2 0.4238 -11.51477536122783 3.2359825140714538 -7.19768354601571 2 9 -15
250 84 1 -0.8476 -4.45398190715129 1.0264415017048751 -6.5099451133360615 6 -1 13
1406 469 2 0.4238 -8.782090742054361 -3.217573751119078 -5.424176969315223 2 -2 -8
641 214 2 0.4238 -8.647140704868232 -3.0271546431916097 -7.84045693312307 -12 4 7
642 214 2 0.4238 -8.515419701136853 -3.8063095192888188 -9.269521953041606 -12 4 7
640 214 1 -0.8476 -8.346153179004366 -2.944950727862704 -8.790541809191874 -12 4 7
1405 469 1 -0.8476 -9.203236459225268 -2.8856959937435853 -6.268277206140247 2 -2 -8
1407 469 2 0.4238 -9.892906267424111 -2.195925754381653 -6.047860011023806 2 -2 -8
49 17 1 -0.8476 -8.162145760600637 3.2500135583838663 -4.998004711853938 -3 -4 -12
50 17 2 0.4238 -7.322482562702725 2.7494052621398666 -4.787367803722904 -3 -4 -12
1395 465 2 0.4238 -5.705424280586261 -1.7085212281141757 -4.355451382269937 9 3 15
251 84 2 0.4238 -4.329875435105436 1.569405488671972 -7.340486178856619 6 -1 13
51 17 2 0.4238 -8.359052600952415 3.8959190458370365 -4.260410266634425 -3 -4 -12
398 133 2 0.4238 -11.930138783644075 1.7289976761832584 -4.758219238730783 -1 14 0
746 249 2 0.4238 -10.576105568008245 -4.037499113506801 -11.68075913669293 1 -7 -8
860 287 2 0.4238 -7.566655673815567 -0.7524938706430113 -11.836857288413116 1 -7 -3
745 249 1 -0.8476 -11.48867912638053 -3.835628871637331 -12.036383186335005 1 -7 -8
545 182 2 0.4238 -7.148585857273752 0.29754496226101956 -7.416095947796342 6 -2 -1
747 249 2 0.4238 -12.102909404673037 -3.622605183091512 -11.276545499902394 1 -7 -8
1371 457 2 0.4238 -9.842713390401075 -1.086292710434023 1.8703124082504612 -15 11 -18
338 113 2 0.4238 -6.460396700840815 2.9947000260905696 -0.8661843628907349 -7 15 -3
1369 457 1 -0.8476 -8.931200433086381 -0.7451802805206587 2.10008848870609 -15 11 -18
337 113 1 -0.8476 -5.653581202093905 3.4532912805389664 -0.49368812843398757 -7 15 -3
718 240 1 -0.8476 -10.807942121633781 -2.4781665733004576 -0.8514891662528985 3 -6 7
339 113 2 0.4238 -4.88316439772586 3.333299866259768 -1.1198438616009962 -7 15 -3
719 240 2 0.4238 -10.553691175012105 -1.7708044891676575 -1.511039929002516 3 -6 7
131 44 2 0.4238 -11.724063407882204 -2.4816798691360127 3.4287046821784752 10 4 19
154 52 1 -0.8476 -7.532372067432551 1.8593158379957533 -1.4517658119798451 -9 -21 -3
852 284 2 0.4238 -5.472577371295342 1.8952066034294184 -3.907870697122794 -6 -4 -3
720 240 2 0.4238 -10.091668338135657 -3.1751676478352238 -0.8175302540306735 3 -6 7
1370 457 2 0.4238 -8.319843454080813 -1.517605364342927 2.2721723319126035 -15 11 -18
130 44 1 -0.8476 -11.484120842321264 -3.172006203102983 4.11126438880753 10 4 19
851 284 2 0.4238 -6.296205486205193 0.4856100456728232 -3.9443312855380555 -6 -4 -3
1013 338 2 0.4238 -9.672348485568055 0.4161253618955385 -1.4273464377779899 12 -1 -4
850 284 1 -0.8476 -6.3624854457285025 1.4738044765036413 -4.082497986137048 -6 -4 -3
156 52 2 0.4238 -7.315050999597427 1.7787571885193927 -2.424541465738381 -9 -21 -3
155 52 2 0.4238 -8.48792397275276 1.6055903389521742 -1.3015823235286685 -9 -21 -3
399 133 2 0.4238 -12.150313019322283 3.0536355310350913 -3.8289655479665896 -1 14 0
365 122 2 0.4238 -10.025375377448743 2.8263694509354984 -0.5155117682248793 9 -6 3
1393 465 1 -0.8476 -6.117246223156379 -1.1483092162017634 -3.636719358445932 9 3 15
364 122 1 -0.8476 -9.931669134579504 3.8002314205822607 -0.7224503447629029 9 -6 3
1012 338 1 -0.8476 -9.96128381097564 1.098600732260369 -0.7559639194627117 12 -1 -4
1073 358 2 0.4238 -11.200832111457357 4.024470771428277 -1.819484923677635 15 -9 -6
1394 465 2 0.4238 -6.98857076717847 -1.551927236326934 -3.357619753580405 9 3 15
181 61 1 -0.8476 -11.657708551693563 -1.5189708019841053 1.5790695704322157 -1 10 -5
1281 427 2 0.4238 -11.933459792797366 1.6254666552797943 2.2276090192357447 9 -6 -7
1279 427 1 -0.8476 -11.039596363185705 1.9713957638084203 1.9423855347051795 9 -6 -7
1280 427 2 0.4238 -10.396018834484089 1.2097375612449461 1.8669158584264292 9 -6 -7
146 49 2 0.4238 -8.498791832750255 2.070198240698778 3.391299087591168 3 -20 -6
390 130 2 0.4238 -5.702833027515782 -0.9208707461817802 -1.0517097871948664 1 -18 -17
1014 338 2 0.4238 -10.947813108407034 1.0253864482090798 -0.6096380234592527 12 -1 -4
183 61 2 0.4238 -11.337310602987195 -1.990905146502044 0.7577085055256738 -1 10 -5
1321 441 1 -0.8476 -4.491243049449515 1.0059943902637851 1.477082709424348 11 -18 -9
388 130 1 -0.8476 -5.154700053216557 -0.08451745102714447 -1.0603815840573887 1 -18 -17
741 247 2 0.4238 -11.06275721174367 3.559493866239901 2.3229699213980304 23 -11 8
1016 339 2 0.4238 -5.9123552185748265 -3.071025634600444 -1.2216848446354653 -15 -8 15
1506 0 3 1 -5.439326218714651 3.2089111124778817 1.8667783587880482 5 3 -6
1015 339 1 -0.8476 -6.5608494684429255 -2.3724032506993566 -0.9193726128696955 -15 -8 15
1476 492 2 0.4238 -7.797907718542345 1.738391529907659 0.4728172331744602 -2 -10 -18
1017 339 2 0.4238 -6.357793109742022 -2.1157057972168882 0.025553773392978485 -15 -8 15
389 130 2 0.4238 -5.575544804803358 0.5834688664410113 -1.6741363329134131 1 -18 -17
748 250 1 -0.8476 -5.220066958085727 2.6557270610683776 4.083468794177694 -2 7 -13
1513 0 4 -1 -6.770522112573252 -2.8195644550134222 3.026310564531048 3 11 7
1475 492 2 0.4238 -8.011239727279978 0.8298170369841475 1.8128309272631444 -2 -10 -18
1474 492 1 -0.8476 -7.654340963329738 1.695392700212338 1.4615290256846638 -2 -10 -18
1323 441 2 0.4238 -4.581363453811002 0.46391850698980974 0.6415931273422721 11 -18 -9
1322 441 2 0.4238 -4.345227104181422 0.39608820012454693 2.2559951105151104 11 -18 -9
615 205 2 0.4238 -4.539929574581856 -2.8712894320604985 3.374378485646881 8 9 1
869 290 2 0.4238 -7.728592139784341 -3.053207838684969 -2.046109216703842 14 -2 -11
896 299 2 0.4238 -9.900107237784324 -0.3939333786890984 -3.3824515687741936 -7 7 1
895 299 1 -0.8476 -9.608971891243897 -0.7612541976389604 -2.4990907203219557 -7 7 1
870 290 2 0.4238 -8.315452391267367 -3.978620666428622 -3.256836636075297 14 -2 -11
897 299 2 0.4238 -9.203031877327305 -1.6655081803782945 -2.6315598369448985 -7 7 1
868 290 1 -0.8476 -8.218571028853713 -3.0428477220123824 -2.9177884007358426 14 -2 -11
456 152 2 0.4238 -5.168349011955464 0.47718430954107305 3.862647063814869 26 9 0
455 152 2 0.4238 -5.605047486699486 -1.092894495253228 3.7586984180623872 26 9 0
454 152 1 -0.8476 -4.831999235523385 -0.4643871057976181 3.844644662953012 26 9 0
1068 356 2 0.4238 -12.377549415114766 -0.6081505898516415 -4.03937029944597 1 3 -9
325 109 1 -0.8476 -4.83404814776948 -0.5261878859914972 10.375783143035711 7 10 -13
1453 485 1 -0.8476 -7.689298152829543 -0.38403345263837885 8.459935739385312 -3 0 -14
334 112 1 -0.8476 -8.983274849428891 -2.1134371956247495 5.089796112895087 4 -10 -11
750 250 2 0.4238 -4.3366300376646745 2.7799168669532275 4.535272631166798 -2 7 -13
1455 485 2 0.4238 -8.133366902199292 -1.1617952066255626 8.01507501492523 -3 0 -14
1454 485 2 0.4238 -7.133298759016855 -0.710210882274998 9.224451179914048 -3 0 -14
336 112 2 0.4238 -8.301638809711196 -2.1387784589199548 4.3585359603874245 4 -10 -11
159 53 2 0.4238 -11.75870398475863 -1.0041868369046867 11.528296948486407 -4 3 -5
1059 353 2 0.4238 -11.344213663896594 1.645005802905363 8.170928956956004 1 -17 18
1057 353 1 -0.8476 -11.749435044349747 1.1544335682953566 7.39947235547951 1 -17 18
326 109 2 0.4238 -5.453503840226923 0.1512970819627526 10.77239341806333 7 10 -13
679 227 1 -0.8476 -10.655029411426671 -1.1866001409193068 8.632116905602796 -7 25 12
681 227 2 0.4238 -11.173631045364283 -1.0242581338043486 9.471586079435152 -7 25 12
327 109 2 0.4238 -4.348992697901005 -0.12099954040102112 9.600828190818248 7 10 -13
980 327 2 0.4238 -9.971688805535285 -0.507312732739603 5.280384848102631 -2 -9 -4
981 327 2 0.4238 -10.83792166989253 0.6275731556943693 6.073057134050959 -2 -9 -4
1301 434 2 0.4238 -10.642948963122825 -3.410402709387414 8.713214044964314 -2 11 -9
979 327 1 -0.8476 -10.06246475879746 0.47202882237183097 5.461106836937287 -2 -9 -4
749 250 2 0.4238 -5.941924872023518 3.057905739126733 4.646661429290255 -2 7 -13
126 42 2 0.4238 -5.016963412840662 0.6953959994824324 7.587941033303711 -19 8 11
145 49 1 -0.8476 -8.4241972800376 2.1145736908135078 4.387530499501409 3 -20 -6
859 287 1 -0.8476 -7.866530049123992 -0.7241328382727374 11.970848414307586 1 -7 -4
147 49 2 0.4238 -8.975790896112017 1.3872058587472154 4.795809051442269 3 -20 -6
861 287 2 0.4238 -7.4767800355026965 0.0803747864541986 11.522659681627548 1 -7 -4
970 324 1 -0.8476 -6.641126747062712 1.2856852123658449 10.961385709669205 7 -16 11
370 124 1 -0.8476 -6.767198339427561 3.240939854744303 9.086132233520345 8 -3 3
680 227 2 0.4238 -10.861504165632143 -0.46761268753973084 7.968463183858759 -7 25 12
371 124 2 0.4238 -5.997454325846204 3.856793777683958 8.918116300554704 8 -3 3
972 324 2 0.4238 -6.185736780101199 1.8138133886214725 11.678122787820751 7 -16 11
372 124 2 0.4238 -6.971557736715656 2.7277225844281077 8.252551220012705 8 -3 3
971 324 2 0.4238 -6.825470229641592 1.877981553269235 10.17703025391123 7 -16 11
767 256 2 0.4238 -7.265623787875204 -2.3178530483482263 11.602792485344427 3 -5 7
1205 402 2 0.4238 -6.771063944203409 -3.4664568499145005 7.818952909516046 7 6 4
766 256 1 -0.8476 -6.6830262060422605 -3.1043502063820227 11.397819350907806 3 -5 7
768 256 2 0.4238 -7.231828391299628 -3.8236770766788553 10.971913523275138 3 -5 7
936 312 2 0.4238 -7.87000928525407 4.005613725396881 10.366837285754684 2 -16 -1
1206 402 2 0.4238 -8.395267840876809 -3.4606898691394914 7.649887804919494 7 6 4
652 218 1 -0.8476 -6.743846337569629 1.402926168858171 6.910917314188403 15 10 -8
113 38 2 0.4238 -11.571002944904711 2.1797597651779075 10.454632095924289 1 -1 6
1204 402 1 -0.8476 -7.548886040745141 -2.979507880223034 7.421606681497845 7 6 4
653 218 2 0.4238 -7.163761817499324 1.4099847658723448 6.003375749511239 15 10 -8
654 218 2 0.4238 -7.188042926925079 0.7095667057731667 7.47832662923399 15 10 -8
968 323 2 0.4238 -4.490581745414113 -1.4202586330819393 7.090355955030521 2 7 -3
1377 459 2 0.4238 -9.313242998293017 2.4003170586754834 9.632968020684462 -8 4 -5
1375 459 1 -0.8476 -10.02040189258685 1.7171054099796077 9.450872676510212 -8 4 -5
1376 459 2 0.4238 -9.592207004649465 0.8697385927525598 9.136819036413073 -8 4 -5
1148 383 2 0.4238 -4.2574860505802885 -2.8332987528261544 8.594330883827897 -3 -2 -1
335 112 2 0.4238 -8.54112987813281 -2.31147101996479 5.964610983486917 4 -10 -11
967 323 1 -0.8476 -4.426438897277934 -2.311376109078532 6.641127568991827 2 7 -3
480 160 2 0.4238 -7.537796443761763 3.6668081640059285 4.820102414330357 14 9 -12
132 44 2 0.4238 -10.515477183172608 -3.087227664121805 4.344830215265812 10 4 19
1424 475 2 0.4238 -9.989014524317135 4.06698129045548 12.203041801111848 22 -11 -1
800 267 2 0.4238 -10.869529168600756 6.209555390928415 -9.457390417504755 -1 -4 14
837 279 2 0.4238 -5.625006472853579 8.23567182016928 -8.862446260201606 0 4 -5
573 191 2 0.4238 -4.810744773360384 5.311677681894068 -11.169095193838062 -5 -26 14
571 191 1 -0.8476 -4.825226135608054 4.935046300024791 -10.24283825642691 -5 -26 14
989 330 2 0.4238 -8.345483284530005 6.427854504455876 -5.185344099869555 4 2 -11
929 310 2 0.4238 -7.106100262564706 6.50418760213962 -7.296792246140486 -9 -3 -13
930 310 2 0.4238 -7.335171776485625 6.567224642599911 -8.912405987455088 -9 -3 -13
928 310 1 -0.8476 -6.742495975510034 6.854555925291841 -8.159952163025025 -9 -3 -13
799 267 1 -0.8476 -10.725250417112015 6.242578957460886 -10.44638280058135 -1 -4 14