LAMMPS data file via write_data, version 28 Oct 2021, timestep = 10000

1516 atoms
11 atom types
1000 bonds
1 bond types
500 angles
1 angle types

-12.392270816248633 12.392270816248633 xlo xhi
-12.392270816248633 12.392270816248633 ylo yhi
-12.392270816248633 12.392270816248633 zlo zhi

Masses

1 15.9994
2 1.00794
3 22.989769
4 35.453
5 60
6 60
7 60
8 15.9994
9 1.00794
10 22.989769
11 35.453

PairIJ Coeffs # lj/cut/coul/long

1 1 0.155354 3.169 9
1 2 0 0 9
1 3 0.234061 2.66425 9
1 4 0.044567 3.99975 9
1 5 0 0 9
1 6 0 0 9
1 7 0 0 9
1 8 0.155354 3.169 9
1 9 0 0 9
1 10 0.234061 2.66425 9
1 11 0.044567 3.99975 9
2 2 0 0 9
2 3 0 1.07975 9
2 4 0 2.41525 9
2 5 0 0 9
2 6 0 0 9
2 7 0 0 9
2 8 0 1.5845 9
2 9 0 0 9
2 10 0 1.07975 9
2 11 0 2.41525 9
3 3 0.352644 2.1595 9
3 4 0.067146 3.495 9
3 5 0 0 9
3 6 0 0 9
3 7 0 0 9
3 8 0.234061 2.66425 9
3 9 0 0 9
3 10 0.352644 2.1595 9
3 11 0.067146 3.495 9
4 4 0.0127851 4.8305 9
4 5 0 0 9
4 6 0 0 9
4 7 0 0 9
4 8 0.044567 3.99975 9
4 9 0 0 9
4 10 0.067146 3.495 9
4 11 0.0127851 4.8305 9
5 5 0 0 9
5 6 0 0 9
5 7 0 0 9
5 8 0 1.5845 9
5 9 0 0 9
5 10 0 1.07975 9
5 11 0 2.41525 9
6 6 0 0 9
6 7 0 0 9
6 8 0 1.5845 9
6 9 0 0 9
6 10 0 1.07975 9
6 11 0 2.41525 9
7 7 0 0 9
7 8 0 1.5845 9
7 9 0 0 9
7 10 0 1.07975 9
7 11 0 2.41525 9
8 8 0.155354 3.169 9
8 9 0 0 9
8 10 0.234061 2.66425 9
8 11 0.044567 3.99975 9
9 9 0 0 9
9 10 0 1.07975 9
9 11 0 2.41525 9
10 10 0.352644 2.1595 9
10 11 0.067146 3.495 9
11 11 0.0127851 4.8305 9

Bond Coeffs # harmonic

1 100000 1

Angle Coeffs # harmonic

1 100000 109.47

Atoms # full

1076 359 2 0.4238 -8.754451351730939 -11.59102783684178 -10.87182486165428 12 -25 -2
693 231 2 0.4238 -5.087811691087957 -11.297517416295555 -6.912765953390066 10 -8 -2
1075 359 1 -0.8476 -9.28546260730705 -11.313538867227354 -10.07120284444648 12 -25 -2
692 231 2 0.4238 -4.512945150129012 -11.03544003671023 -8.418549956446684 10 -8 -2
1077 359 2 0.4238 -9.006129442269412 -11.858589539327701 -9.28072136701853 12 -25 -2
566 189 2 0.4238 -4.299288713688055 -10.127879823176508 -11.512027919727009 28 -10 10
1086 362 2 0.4238 -10.4873212816003 -9.370338872912084 -9.58031523758236 -15 10 16
198 66 2 0.4238 -11.885473097414913 -10.648553593591718 -11.873833648918565 11 17 13
691 231 1 -0.8476 -5.312764253339838 -11.31416556817711 -7.886977168252578 10 -8 -2
918 306 2 0.4238 -5.51722862304886 -5.594315572735094 -7.475382982258959 -14 -2 2
661 221 1 -0.8476 -10.09222850673654 -6.100093033596564 -7.58235860279735 2 -11 7
400 134 1 -0.8476 -5.1120049720922145 -11.223932408175042 -5.251130473035168 -21 3 -23
401 134 2 0.4238 -4.168274985878211 -10.915668910631096 -5.131482308872689 -21 3 -23
1200 400 2 0.4238 -5.822901398597513 -8.046245506686336 -7.7516015333098 -6 18 -10
1199 400 2 0.4238 -5.33948792935909 -7.635253583308055 -6.2469625027894535 -6 18 -10
663 221 2 0.4238 -10.098431042750242 -5.393319044565802 -8.28974838580612 2 -11 7
402 134 2 0.4238 -5.737733930273801 -10.477816092875267 -5.023662233768276 -21 3 -23
7 3 1 -0.8476 -7.271849074016486 -5.772156003971405 -5.380864017059385 2 -5 10
8 3 2 0.4238 -8.262880208028017 -5.76625745967534 -5.514245374504264 2 -5 10
9 3 2 0.4238 -6.978235114968435 -6.6870978457139385 -5.104024110425457 2 -5 10
247 83 1 -0.8476 -11.200398845726106 -5.240954311974059 -12.098662241032105 -4 17 -8
807 269 2 0.4238 -10.533014969480252 -4.823418864916662 -10.506960771435324 -2 5 18
805 269 1 -0.8476 -9.919608152542635 -4.5286987532341225 -9.774266710902221 -2 5 18
662 221 2 0.4238 -9.86403996233782 -6.982162545222816 -7.994488974962791 2 -11 7
917 306 2 0.4238 -6.281993468496156 -4.725029890629042 -8.626911836510784 -14 -2 2
1015 339 1 -0.8476 -5.541885287458273 -7.958417595076954 -4.582784909542266 -15 -8 15
196 66 1 -0.8476 -11.763232660412756 -10.576191288488868 -10.883990625221806 11 17 13
1198 400 1 -0.8476 -5.161954820521957 -7.513158310948617 -7.22345775403791 -6 18 -10
197 66 2 0.4238 -10.94484124020288 -11.082031123773065 -10.611355726913642 11 17 13
1084 362 1 -0.8476 -10.145072441000611 -8.541190753061091 -9.138334587863623 -15 10 16
916 306 1 -0.8476 -5.572449420627746 -4.701644723146773 -7.922661267552316 -14 -2 2
636 212 2 0.4238 -11.493061092474967 -6.285568877691043 -6.517933591295973 0 -10 6
635 212 2 0.4238 -11.404237367619666 -6.386777707822643 -4.89054040116452 0 -10 6
1308 436 2 0.4238 -11.720336137601164 -11.047541909950398 -6.50287532117026 14 6 0
1306 436 1 -0.8476 -11.193910462462354 -10.958524025330602 -5.657345970497275 14 6 0
1307 436 2 0.4238 -11.79687380548539 -10.654648439669328 -4.919739737365975 14 6 0
821 274 2 0.4238 -10.320885719106567 -11.974550346412062 -4.643792425258766 2 -2 17
836 279 2 0.4238 -8.734043754985159 -12.311953226710225 -6.770136663991516 0 5 -5
1140 380 2 0.4238 -11.812798109734972 -7.537318685870831 -9.200363084899319 1 -8 -2
634 212 1 -0.8476 -12.014954810782902 -6.230226338063307 -5.666738856447063 0 -10 6
1233 411 2 0.4238 -7.682260486574843 -9.577892850974427 -7.2233816167455 -5 -13 15
1085 362 2 0.4238 -9.212689054267852 -8.697724050042636 -8.812563882486312 -15 10 16
1231 411 1 -0.8476 -7.338120063025265 -9.354852986130556 -8.135406320657047 -5 -13 15
202 68 1 -0.8476 -8.685873970392052 -9.89982260428384 -5.783172648251784 -7 14 -18
204 68 2 0.4238 -8.329177192162138 -9.917647478787096 -4.849139570659163 -7 14 -18
1232 411 2 0.4238 -6.508724362361874 -9.883117148886651 -8.317087534151472 -5 -13 15
203 68 2 0.4238 -9.546846676734393 -10.407041410488432 -5.820898786988971 -7 14 -18
81 27 2 0.4238 -6.268733011137417 -9.01317724093602 -11.924764258107025 -1 -2 -12
1009 337 1 -0.8476 -7.698412360571248 -7.928628966555382 -10.58812100316694 0 1 7
1010 337 2 0.4238 -8.63044729722062 -8.138109577810123 -10.88375062310198 0 1 7
1011 337 2 0.4238 -7.361786898254166 -8.664453505003282 -10.000572265087785 0 1 7
405 135 2 0.4238 -5.319447145964082 -6.296661008709272 -12.14056932307552 -1 1 16
1238 413 2 0.4238 -7.322834956553183 -6.294589805525175 -10.174730723611361 -14 -18 12
1239 413 2 0.4238 -8.295399106649231 -5.006597113607361 -9.926265473229698 -14 -18 12
1237 413 1 -0.8476 -7.348029321984621 -5.3266850086890445 -9.924743607673854 -14 -18 12
1287 429 2 0.4238 -4.898800734359964 -7.263472873812294 -1.4497551013995764 0 18 14
178 60 1 -0.8476 -10.7521506118638 -4.456443162235434 -2.3607828647911386 1 -13 10
1285 429 1 -0.8476 -4.280089119817545 -7.356892749934818 -2.2297788303650936 0 18 14
1093 365 1 -0.8476 -10.217719679970108 -9.616541301377628 -2.229904696195419 6 -6 12
615 205 2 0.4238 -6.127001221231756 -6.4126152285330145 1.3573428845752389 8 9 1
613 205 1 -0.8476 -6.057474188594159 -5.56111514599725 1.877036834919311 8 9 1
334 112 1 -0.8476 -8.522430352529595 -8.123879048004149 3.48702504298649 4 -10 -11
1513 0 4 -1 -6.236735415276182 -8.280691865155095 0.19567396395212455 3 11 7
390 130 2 0.4238 -6.605430465903175 -4.349830001203822 3.332828161634689 1 -18 -17
1189 397 1 -0.8476 -6.734427857690983 -4.421224092904589 -2.495765637639785 5 -32 0
1002 334 2 0.4238 -4.222175975585676 -5.059619182778243 2.6563920134235808 1 -9 -26
457 153 1 -0.8476 -5.859572595812178 -10.901490008915783 -1.659067320444235 -5 -2 -2
459 153 2 0.4238 -6.076374649966208 -10.223979165385678 -0.956255374571926 -5 -2 -2
1132 378 1 -0.8476 -4.250409838264282 -8.15957780473046 3.606853236864417 -4 6 -20
1190 397 2 0.4238 -6.551921566978666 -4.9980615445239245 -3.2919554697759796 5 -32 0
335 112 2 0.4238 -7.862692852090946 -7.626677910627216 4.050501746462324 4 -10 -11
336 112 2 0.4238 -8.077719012350457 -8.920607182741428 3.077849630741083 4 -10 -11
777 259 2 0.4238 -9.827045073013373 -6.799016111723278 -2.501347566810553 14 -3 22
458 153 2 0.4238 -5.167335994671305 -11.533421758285423 -1.3105860318116846 -5 -2 -2
776 259 2 0.4238 -10.555198982994355 -8.033052964412338 -3.2846008892015934 14 -3 22
915 305 2 0.4238 -7.811147570856876 -6.754710913149642 -0.5562647870682955 7 7 9
1095 365 2 0.4238 -11.190073530732597 -9.820743129136279 -2.3430317497525888 6 -6 12
775 259 1 -0.8476 -10.46948500117454 -7.038282138484653 -3.2293523701717444 14 -3 22
914 305 2 0.4238 -8.140736699437078 -5.436099900843389 -1.4613490397125748 7 7 9
913 305 1 -0.8476 -8.500612902440318 -6.306400751771942 -1.125144257500386 7 7 9
1094 365 2 0.4238 -10.027161338562173 -9.425101966180906 -1.267092950548479 6 -6 12
179 60 2 0.4238 -10.69740001082223 -5.359174721114239 -2.7874517679266013 1 -13 10
783 261 2 0.4238 -6.911652634243818 -9.631444776239901 1.699803899155393 23 -5 20
1309 437 1 -0.8476 -10.849749883684325 -10.884651041719621 2.3412477597149675 11 -12 -3
1311 437 2 0.4238 -10.332538713393626 -10.764401692745917 3.1885970633568377 11 -12 -3
1310 437 2 0.4238 -10.38166216264321 -11.546873137700523 1.756163175366364 11 -12 -3
609 203 2 0.4238 -8.085494564155338 -11.778309357210967 2.816945837265239 1 23 3
846 282 2 0.4238 -4.234177141228283 -12.17806922711746 3.383826175628757 0 -1 3
844 282 1 -0.8476 -4.734200145727726 -11.428550850084301 2.9500435629187614 0 -1 3
1050 350 2 0.4238 -4.183662841072282 -8.867302683424285 1.1486411328067359 -17 8 -3
181 61 1 -0.8476 -11.544737626477954 -4.831091817340926 2.084779359105722 -1 10 -5
123 41 2 0.4238 -8.26610515312905 -9.578480977529413 -2.9587087515947665 5 -2 -6
781 261 1 -0.8476 -7.100241144141024 -10.433690511263032 2.266199799097903 23 -5 20
183 61 2 0.4238 -11.276694261873294 -4.310684729145626 1.2740405260197303 -1 10 -5
782 261 2 0.4238 -6.271919802966817 -10.98837292760808 2.3448069732094883 23 -5 20
122 41 2 0.4238 -6.831649132895975 -10.312885913746191 -2.6950295690509183 5 -2 -6
121 41 1 -0.8476 -7.354320231689491 -9.747387478200984 -3.3329907426609306 5 -2 -6
182 61 2 0.4238 -11.421722937847925 -5.80788959755151 1.909560615629264 -1 10 -5
1016 339 2 0.4238 -4.783137619873671 -7.590675776228839 -4.045164119771336 -15 -8 15
239 80 2 0.4238 -11.319399159110631 -8.317768936268525 0.3259348619931952 14 21 14
240 80 2 0.4238 -11.479364223020823 -9.71599341536017 1.1541382250470313 14 21 14
238 80 1 -0.8476 -11.655456026951663 -9.25859195756242 0.28250531705415405 14 21 14
131 44 2 0.4238 -9.49431486875212 -6.70251035101786 0.21495301302627468 10 4 19
132 44 2 0.4238 -9.4552908076403 -7.35674354206948 1.7106126208625057 10 4 19
1017 339 2 0.4238 -6.12309800058028 -8.522704903448634 -3.9964915586230436 -15 -8 15
130 44 1 -0.8476 -10.018483416764143 -7.212431583496831 0.8970056910075677 10 4 19
614 205 2 0.4238 -6.106090726813575 -4.783296437512795 1.2504567087547684 8 9 1
596 199 2 0.4238 -7.10007163462117 -12.045606642226598 -2.2551007321124956 -4 -3 7
454 152 1 -0.8476 -6.334385270032886 -5.822378712898427 7.208006393665801 26 9 0
833 278 2 0.4238 -10.502648441109683 -7.284505046730729 5.816247841250419 19 12 6
575 192 2 0.4238 -10.745735093699668 -11.450474442954766 10.625056097982167 2 1 -6
522 174 2 0.4238 -11.839001796609445 -10.04475925172139 6.720772868073997 -16 -7 -8
576 192 2 0.4238 -12.2548542315643 -10.827614874335612 10.591200808432383 2 1 -6
455 152 2 0.4238 -6.059661876982806 -6.464161730504191 7.923974158582929 26 9 0
165 55 2 0.4238 -5.630222113040222 -7.587915443183928 4.427751243514763 -8 -2 -3
164 55 2 0.4238 -6.313849919412019 -6.641019545113079 5.569058745826908 -8 -2 -3
832 278 1 -0.8476 -10.795579169925354 -7.412203433867023 4.8686968303032 19 12 6
520 174 1 -0.8476 -12.360963396819779 -9.47112593735921 7.352016746239702 -16 -7 -8
834 278 2 0.4238 -10.013179846063867 -7.693185702707246 4.31293741847503 19 12 6
1341 447 2 0.4238 -4.809028211827922 -9.818312014889548 8.491180448661758 -7 0 -18
642 214 2 0.4238 -10.287737719782761 -9.519212729041485 10.910624922995751 -12 4 6
163 55 1 -0.8476 -6.441847806825249 -7.450027651755819 4.995394632459924 -8 -2 -3
1458 486 2 0.4238 -6.98481974914906 -11.299843468331222 9.368941421118144 1 -16 18
1457 486 2 0.4238 -8.376167438268347 -12.056034889904915 9.767523019085068 1 -16 18
403 135 1 -0.8476 -6.1751753408190675 -6.36901702072918 12.131661811940997 -1 1 15
574 192 1 -0.8476 -11.469970976976581 -11.034752193984076 11.175170294004296 2 1 -6
360 120 2 0.4238 -6.527926772993439 -4.80707405769718 11.364743937130253 10 -16 2
473 158 2 0.4238 -12.356449294910808 -5.182240201713432 6.863811687373303 -1 -20 5
456 152 2 0.4238 -5.529431682426029 -5.333489050802201 6.871844587632157 26 9 0
1456 486 1 -0.8476 -7.781474728604649 -11.278799474393969 9.972982765712764 1 -16 18
404 135 2 0.4238 -5.984649726173781 -6.709446607913076 11.210914333582934 -1 1 15
362 121 2 0.4238 -5.4315347526041755 -11.513675652692974 11.689020472480134 -12 -12 -9
1339 447 1 -0.8476 -4.9012206917206615 -10.743052846082035 8.121960953546562 -7 0 -18
510 170 2 0.4238 -7.277844592007688 -8.095085754323158 6.3275311150352 2 1 0
1340 447 2 0.4238 -4.1893362073004745 -11.329008379013699 8.509058783519723 -7 0 -18
813 271 2 0.4238 -10.16264917579707 -10.860653542408413 5.624771481572868 0 -21 5
508 170 1 -0.8476 -7.58223696169914 -8.416402100406026 7.224230310476287 2 1 0
1204 402 1 -0.8476 -8.648299579851141 -4.234314975335387 7.274672457627048 7 6 4
321 107 2 0.4238 -9.144416313137096 -4.9779324652772745 10.049921155705231 -12 -9 -1
811 271 1 -0.8476 -11.038185880359823 -11.171713478483458 5.255115669307145 0 -21 5
812 271 2 0.4238 -11.147985798591694 -12.149062929890016 5.435947499995056 0 -21 5
509 170 2 0.4238 -6.83376883675159 -8.328452109135657 7.8815189722529375 2 1 0
1205 402 2 0.4238 -7.933924528454084 -4.933883437563299 7.259167141873387 7 6 4
939 313 2 0.4238 -9.775479051295166 -6.181029964901112 8.190661432751568 21 17 -25
937 313 1 -0.8476 -9.995568211531396 -6.8738519170508985 7.503983554240538 21 17 -25
640 214 1 -0.8476 -9.335228445923802 -9.237447138850204 11.025960523382132 -12 4 6
938 313 2 0.4238 -9.261053824131139 -7.5514015216629025 7.466789897116172 21 17 -25
1366 456 1 -0.8476 -10.290297885764938 -12.153998111156081 8.916658875692981 3 -3 -6
1452 484 2 0.4238 -4.940445635295485 -5.709521711923195 9.211376353007363 8 3 -25
1368 456 2 0.4238 -11.282482619880968 -12.187447205133642 8.796580076248436 3 -3 -6
1451 484 2 0.4238 -5.476374755707489 -4.267983360736581 9.760273797905754 8 3 -25
80 27 2 0.4238 -5.701276638670942 -8.88028669214147 11.334367627761598 -1 -2 -13
248 83 2 0.4238 -11.906764261887249 -5.831355335765078 12.295440780070315 -4 17 -9
249 83 2 0.4238 -10.324720978751762 -5.430364431832017 12.24171723939159 -4 17 -9
641 214 2 0.4238 -8.730840107045644 -9.985489784778913 10.751888937052822 -12 4 6
1450 484 1 -0.8476 -4.693413522887622 -4.753927529606119 9.371947059641105 8 3 -25
1514 0 4 -1 -5.165942605177911 -7.842632522946041 9.485909440540908 -3 -1 -13
79 27 1 -0.8476 -5.841696970925694 -9.505994546283839 12.101661602789243 -1 -2 -13
1367 456 2 0.4238 -9.853699945117844 -11.975049319359647 8.03499695261316 3 -3 -6
254 85 2 0.4238 -9.319995588648883 -7.310181581287201 11.326721622569373 -6 -18 1
1163 388 2 0.4238 -7.925477679935624 -11.923279174295272 11.749211579432426 11 4 -12
1344 448 2 0.4238 -8.323491850387398 -9.934882909797247 6.3708707813351495 -7 13 0
255 85 2 0.4238 -8.025604637902475 -6.567982834332992 11.990222845753522 -6 -18 1
949 317 1 -0.8476 -6.029662427038081 -11.966170806455288 5.590913253497899 -12 9 -11
253 85 1 -0.8476 -8.964226640490999 -6.440805915839764 11.66962491947671 -6 -18 1
1342 448 1 -0.8476 -8.613517422674406 -10.86257570261239 6.135840112957659 -7 13 0
529 177 1 -0.8476 -9.49148939171362 -4.304098950370122 4.768330754221864 -4 23 20
1343 448 2 0.4238 -7.826715378872659 -11.384302259690584 5.806124701238243 -7 13 0
530 177 2 0.4238 -10.02432102182489 -5.140863707465653 4.6423016063978295 -4 23 20
950 317 2 0.4238 -5.793417954072712 -11.508754361434354 4.733634492796256 -12 9 -11
951 317 2 0.4238 -5.556147100433762 -11.518170575278873 6.349231971912602 -12 9 -11
861 287 2 0.4238 -9.07247035962408 0.9341558994924384 -10.592141840534818 1 -7 -3
544 182 1 -0.8476 -8.52502830897031 1.2603634288137915 -5.477587209320216 6 -2 -1
546 182 2 0.4238 -9.246133985262567 1.0076388350619911 -6.122649247735959 6 -2 -1
1509 0 4 -1 -11.155537621850417 0.17898214567215476 -7.0749868389756445 14 14 8
1115 372 2 0.4238 -12.268652654311476 3.790020178949028 -9.118547928796113 13 -3 2
900 300 2 0.4238 -11.232456617368845 -1.5350446222087193 -8.787782180092098 17 5 -8
897 299 2 0.4238 -10.806783907593484 -1.6302459968710608 -6.0770524214397375 -7 7 1
645 215 2 0.4238 -7.156811314450338 -3.5474919672033387 -5.804504657261772 -5 -2 23
936 312 2 0.4238 -11.3910944837112 3.2137312668236717 -12.32121556946279 2 -16 0
860 287 2 0.4238 -7.955482830716201 -0.0138520980744552 -9.87091982340392 1 -7 -3
859 287 1 -0.8476 -8.85317788233301 -0.00018916653925771243 -10.311289090295704 1 -7 -3
545 182 2 0.4238 -7.637495298042857 1.2176418628729717 -5.936311746732358 6 -2 -1
899 300 2 0.4238 -10.024766682802145 -1.0051375418814956 -9.750707236518142 17 5 -8
1488 496 2 0.4238 -10.779665370172314 2.096233978473812 -8.661504409699635 -2 -4 -2
806 269 2 0.4238 -10.163871314593141 -3.602387265606618 -9.487472493950843 -2 5 18
95 32 2 0.4238 -6.6619803871615 3.851801108396547 -6.08923207309545 -10 -4 15
643 215 1 -0.8476 -6.360057813162741 -2.9738942908016206 -5.994604326722864 -5 -2 23
1413 471 2 0.4238 -5.240400810614512 1.2385298411205365 -10.694062964043484 -16 -5 -5
96 32 2 0.4238 -5.601953827274416 3.340557774079379 -4.9571916439881445 -10 -4 15
898 300 1 -0.8476 -10.639416155660616 -1.7699886785178265 -9.557893946578142 17 5 -8
353 118 2 0.4238 -4.447708180531235 -3.923980494020176 -10.407967617894943 -5 -7 2
644 215 2 0.4238 -5.806735974837808 -3.39883688359053 -6.711003158773679 -5 -2 23
1411 471 1 -0.8476 -4.946616671544695 1.1129843528383283 -9.746488657306177 -16 -5 -5
14 5 2 0.4238 -4.1949300455393015 3.7708223199329787 -6.820165334840936 25 -15 -11
397 133 1 -0.8476 -11.734001587930484 2.4091251087045205 -4.834499022996032 -1 14 0
94 32 1 -0.8476 -5.89605120373325 3.2352306223710237 -5.907129047847917 -10 -4 15
720 240 2 0.4238 -12.338963650308122 -2.8859818643770865 -4.673633222603419 3 -6 7
398 133 2 0.4238 -11.457466486013319 1.9223042921732567 -5.663053175404681 -1 14 0
895 299 1 -0.8476 -10.894763094367145 -2.2408268739537966 -5.290020650939681 -7 7 1
999 333 2 0.4238 -5.204042711373009 -0.05671422039792873 -5.604282007103571 13 6 -1
997 333 1 -0.8476 -5.080763357219817 -0.8360626721997679 -4.989964303189419 13 6 -1
998 333 2 0.4238 -5.476199964112335 -1.654640077371715 -5.406532428198828 13 6 -1
896 299 2 0.4238 -9.994784435934537 -2.6022141399139453 -5.046287603345898 -7 7 1
1487 496 2 0.4238 -10.280581725979781 2.8127560867985757 -10.041378789799467 -2 -4 -2
679 227 1 -0.8476 -12.347627941845676 -2.388911116431128 -11.926923515812497 -7 25 13
681 227 2 0.4238 -11.807754150543404 -2.0828436188585577 -11.14281430954691 -7 25 13
838 280 1 -0.8476 -6.689493143598549 4.078042174041059 -11.489897610058014 27 0 12
114 38 2 0.4238 -8.237253299118684 3.0148697234326995 -11.13652171347915 1 -1 7
702 234 2 0.4238 -5.474923674421155 0.9309879009216608 -7.994076242030981 11 -8 -14
701 234 2 0.4238 -5.908870264988351 1.7115459195593417 -6.62697679057152 11 -8 -14
902 301 2 0.4238 -6.377884978533837 -4.090261613584591 -10.355973064131938 9 19 -3
112 38 1 -0.8476 -9.127369850958454 2.561924949634294 -11.086504678656475 1 -1 7
1486 496 1 -0.8476 -10.840298223982023 2.9234122585397486 -9.220134977212158 -2 -4 -2
901 301 1 -0.8476 -6.014026857306736 -3.2102991193218067 -10.661327477726214 9 19 -3
903 301 2 0.4238 -6.183411153188666 -2.5180671303691256 -9.959834860509037 9 19 -3
700 234 1 -0.8476 -5.962130893664414 0.8460104608543162 -7.124952499615314 11 -8 -14
1137 379 2 0.4238 -5.888396182640644 -0.5556257817732444 -9.39931388083377 11 9 -3
766 256 1 -0.8476 -8.356227989827936 -1.7778343896534228 -12.326059721706512 3 -5 8
1136 379 2 0.4238 -6.728590327155126 -1.1207531274518736 -8.118202637218713 11 9 -3
113 38 2 0.4238 -9.397819124688445 2.2567227806353323 -11.999563839170776 1 -1 7
1135 379 1 -0.8476 -6.62348056785477 -1.1694306495815958 -9.111455083444232 11 9 -3
767 256 2 0.4238 -8.837337184310597 -1.2509692815620355 -11.625406237253264 3 -5 8
670 224 1 -0.8476 -6.22528691479394 0.610070142673866 -12.286207644022301 3 4 19
1394 465 2 0.4238 -7.97365619471954 -3.9090731393812064 -3.7140032495034703 9 3 15
1369 457 1 -0.8476 -11.43391814579544 -3.0994398521926296 -0.14135829519130283 -15 11 -18
364 122 1 -0.8476 -10.98825360309686 3.4955730645506353 -1.4017896885953327 9 -6 3
155 52 2 0.4238 -9.675721361108755 -0.6550805828141577 0.5086099314831909 -9 -21 -3
1191 397 2 0.4238 -6.059487706916323 -3.6844327254072393 -2.4562343104553275 5 -32 0
1257 419 2 0.4238 -4.507915568013312 1.75400209635775 0.6263406640431182 -3 -4 3
1012 338 1 -0.8476 -9.481151918095547 1.6880197373253552 -2.8059444548630808 12 -1 -4
1370 457 2 0.4238 -10.975682650229817 -3.600351914015663 -0.8755760740112066 -15 11 -18
769 257 1 -0.8476 -4.747557617202383 -2.6359137120960128 -2.5893820179917064 7 12 3
1014 338 2 0.4238 -10.21578570190725 1.0114818445035603 -2.7551675117609395 12 -1 -4
1393 465 1 -0.8476 -8.60550015317491 -3.211928438811844 -4.052722281490622 9 3 15
147 49 2 0.4238 -9.574268091185573 0.16860291369673774 3.1374729538778094 3 -20 -6
1280 427 2 0.4238 -12.187988586994956 -0.04240246933413161 1.6310515557920056 9 -6 -7
145 49 1 -0.8476 -9.576296767826586 0.35291664728775274 4.1203220368658116 3 -20 -6
156 52 2 0.4238 -10.811368981984138 -1.8194413722880878 0.6539025007997701 -9 -21 -3
1506 0 3 1 -6.0291296285844105 1.5359541456926031 3.231654101369335 5 3 -6
339 113 2 0.4238 -8.323747687145465 1.6977034371738622 1.6577070429197267 -7 15 -3
1255 419 1 -0.8476 -4.692809459588403 2.6463324700894635 1.0380792140495938 -3 -4 3
771 257 2 0.4238 -4.83477041544743 -2.1572456226049006 -3.463017499007041 7 12 3
388 130 1 -0.8476 -6.812076823537139 -3.772663116930632 4.12285592729587 1 -18 -17
1013 338 2 0.4238 -9.078074462699078 1.6743097826050626 -3.7209902729065547 12 -1 -4
414 138 2 0.4238 -11.048557659715161 -0.9984367597966806 -3.837011678095619 -3 6 -12
413 138 2 0.4238 -11.883081855610552 -0.682835625719596 -2.4693470237165354 -3 6 -12
365 122 2 0.4238 -10.288547198431953 3.0884067898136696 -1.9888114903704484 9 -6 3
1371 457 2 0.4238 -12.049236079021112 -2.4174825780204507 -0.5366890734809253 -15 11 -18
412 138 1 -0.8476 -11.204121333367935 -0.3276642903386833 -3.1118686545075125 -3 6 -12
337 113 1 -0.8476 -7.603097114389039 1.019996326897079 1.5116111949425655 -7 15 -3
135 45 2 0.4238 -5.551440833768724 4.0691752493059035 -3.1088246775072594 19 13 -3
154 52 1 -0.8476 -10.2612367791067 -1.1488461069413773 1.1515216478616228 -9 -21 -3
133 45 1 -0.8476 -4.701486188513757 3.980528767941397 -3.6281388492912097 19 13 -3
1031 344 2 0.4238 -12.150979733653976 -3.286924527498851 2.9776155222696 -7 -3 6
252 84 2 0.4238 -4.734847236616724 -1.7547382556884212 -1.0750976378492965 6 -1 13
250 84 1 -0.8476 -4.964585745645027 -1.0390002968264387 -0.4156224633680594 6 -1 13
251 84 2 0.4238 -4.551496921709032 -0.17514683914196638 -0.7038633175317095 6 -1 13
1296 432 2 0.4238 -10.034229988330116 2.6908263484446255 2.3532237429545813 9 -1 -18
478 160 1 -0.8476 -10.719582409399003 2.9993598862727886 3.80546187651564 14 9 -12
750 250 2 0.4238 -5.056380827746498 -0.5609270618751445 1.316931347228408 -2 7 -13
1294 432 1 -0.8476 -9.627187194369657 2.7760953195054636 1.4438207556108669 9 -1 -18
748 250 1 -0.8476 -4.809372592570416 -0.2244595535121512 2.225636228271034 -2 7 -13
338 113 2 0.4238 -7.747559087457063 0.563864390354011 0.6335208868829767 -7 15 -3
852 284 2 0.4238 -6.340381179812422 -3.8492902183720723 -0.4928926241533045 -6 -4 -3
1395 465 2 0.4238 -8.334092059485872 -2.31645566256649 -3.6999698547036086 9 3 15
1323 441 2 0.4238 -7.993524348625506 -0.7124425297673653 -1.2394959699105073 11 -18 -9
18 6 2 0.4238 -8.020733389843528 3.027308114203329 0.26756982185041167 1 1 -3
851 284 2 0.4238 -5.7240047052326295 -2.4257538490059254 0.017171638724599703 -6 -4 -3
868 290 1 -0.8476 -7.614444826942047 -0.8668005726029548 -3.2223503587364686 14 -2 -11
1295 432 2 0.4238 -10.26007719527999 3.2599314359011995 0.8394028064582191 9 -1 -18
1321 441 1 -0.8476 -8.503212328635701 0.009332843321432804 -0.7712795567115833 11 -18 -9
869 290 2 0.4238 -6.802504661956601 -0.6604682873562595 -3.768379902253603 14 -2 -11
180 60 2 0.4238 -10.115912217630454 -3.833526214938095 -2.815912810202624 1 -13 10
870 290 2 0.4238 -8.32810737558344 -0.19453750005495074 -3.419114758921701 14 -2 -11
850 284 1 -0.8476 -6.313560927063866 -3.195148761038473 0.2629827870267576 -6 -4 -3
16 6 1 -0.8476 -7.257066234467985 3.5720649046261634 -0.07887010666006056 1 1 -3
399 133 2 0.4238 -11.720416496032511 1.779488384428733 -4.057748778084857 -1 14 0
1322 441 2 0.4238 -8.872212915482637 0.6483419605000105 -1.4461677645357067 11 -18 -9
17 6 2 0.4238 -6.42008825193766 3.3191993426914923 0.4064081103592194 1 1 -3
653 218 2 0.4238 -5.751633529989569 -2.620820980210542 5.06503402593599 15 10 -8
358 120 1 -0.8476 -6.833308742930044 -3.9335648282390885 10.985677114208226 10 -16 2
1504 0 3 1 -6.03825039610446 -1.7347826077751307 12.229550815527446 8 2 3
1149 383 2 0.4238 -6.377566276552345 -2.2781378569933253 7.151028798177968 -3 -2 -1
148 50 1 -0.8476 -11.045082011853054 -2.0251404113398372 10.500242414700011 -8 -2 -5
1454 485 2 0.4238 -9.043495044229296 1.4626867187011339 10.752560845176792 -3 0 -14
359 120 2 0.4238 -7.714685877060626 -4.057895449602697 10.529953122267528 10 -16 2
149 50 2 0.4238 -10.489649759429849 -2.8505228853601405 10.399212448638384 -8 -2 -5
1455 485 2 0.4238 -10.438145297938561 2.2856638346064653 10.542321214686414 -3 0 -14
1453 485 1 -0.8476 -9.794316937401799 1.9296877717371022 11.219620466025258 -3 0 -14
1147 383 1 -0.8476 -6.894094872450316 -2.423608545968534 7.994832577779739 -3 -2 -1
124 42 1 -0.8476 -4.200698940723036 2.303565554985129 12.086362174423503 -19 8 11
370 124 1 -0.8476 -4.803735969223091 3.173010095056746 9.426079017615827 8 -3 3
371 124 2 0.4238 -4.18364129408959 3.7417879469833935 8.885762197296579 8 -3 3
150 50 2 0.4238 -11.429224192059126 -1.9927696975741167 11.422931237360896 -8 -2 -5
1148 383 2 0.4238 -7.769273371356718 -2.856770137553003 7.7794216783623575 -3 -2 -1
372 124 2 0.4238 -5.244702148763072 2.501782607584502 8.830284890890994 8 -3 3
319 107 1 -0.8476 -9.42089439050979 -4.038878809487054 9.845701117283433 -12 -9 -1
968 323 2 0.4238 -6.707379680956033 0.12560997241212668 10.048536219882557 2 7 -3
967 323 1 -0.8476 -7.546109622814922 0.668005214326552 10.096574482719177 2 7 -3
1261 421 1 -0.8476 -9.248438018470559 3.707004401714137 7.500571184844713 18 -7 11
1263 421 2 0.4238 -10.130430889379731 4.10123961113381 7.242433679578639 18 -7 11
1262 421 2 0.4238 -8.96328878482688 4.078134088954258 8.384268397514152 18 -7 11
969 323 2 0.4238 -7.936067277870403 0.7606368819254268 9.180430065705586 2 7 -3
1376 459 2 0.4238 -10.820997007163141 -1.0480445556229139 8.989153789434312 -8 4 -5
1206 402 2 0.4238 -8.897685334242247 -3.9917595136134825 6.337153523720026 7 6 4
320 107 2 0.4238 -9.145871746814255 -3.805819342056024 8.912955776296442 -12 -9 -1
479 160 2 0.4238 -11.626077337986716 2.7408778360677264 4.1392609108282485 14 9 -12
1377 459 2 0.4238 -9.668311492607957 -0.37361958190814093 8.049468370734928 -8 4 -5
1375 459 1 -0.8476 -10.59363378389865 -0.7525755951616446 8.06126774030664 -8 4 -5
654 218 2 0.4238 -4.352267670662142 -2.182535739726564 5.783520485353346 15 10 -8
1102 368 1 -0.8476 -4.405642529473868 2.540794081185858 4.520172818910744 11 -7 6
480 160 2 0.4238 -10.433656301558445 3.8516539550973796 4.243422351579348 14 9 -12
1476 492 2 0.4238 -7.312311600042579 -0.05180533247996877 5.053035025366015 -2 -10 -18
675 225 2 0.4238 -12.211783582625133 -0.048372117661534375 7.244560195854714 14 9 4
979 327 1 -0.8476 -8.438187901336928 1.1298485707671926 7.687393715436855 -2 -9 -4
768 256 2 0.4238 -8.774045396114676 -2.682618265101736 12.376245327800685 3 -5 7
980 327 2 0.4238 -7.453267949860964 1.1657395149510332 7.518240710167021 -2 -9 -4
981 327 2 0.4238 -8.824066238248855 2.048779562741016 7.605955755708411 -2 -9 -4
652 218 1 -0.8476 -5.339430225241512 -2.0255332372381147 5.7547363933340066 15 10 -8
671 224 2 0.4238 -5.55511171793991 1.3078001838960276 12.245339495999268 3 4 18
1474 492 1 -0.8476 -6.376194447599108 0.2841494382689458 5.156895977679902 -2 -10 -18
672 224 2 0.4238 -7.056990787314337 0.7350932377032766 11.95740316326324 3 4 18
125 42 2 0.4238 -4.476650035706638 2.434158722847334 11.134120306401407 -19 8 11
1165 389 1 -0.8476 -11.78928331713708 2.683027322283767 9.094307275776593 -15 8 -4
326 109 2 0.4238 -4.5392926564196765 -1.1755971367449671 9.410775306636726 7 10 -13
327 109 2 0.4238 -5.987023259542391 -1.9116367056874122 9.24088287745607 7 10 -13
325 109 1 -0.8476 -5.383250332532696 -1.4353351359967412 9.88007248749534 7 10 -13
1167 389 2 0.4238 -11.92010982859526 2.6525214082365984 8.103387612942942 -15 8 -4
934 312 1 -0.8476 -12.111281586404436 3.8254325045701876 12.136033803944233 2 -16 -1
1300 434 1 -0.8476 -10.446180119178628 -1.9647310044866533 5.57019723448267 -2 11 -9
531 177 2 0.4238 -10.100096540690133 -3.559525590108942 5.042513368751088 -4 23 20
1418 473 2 0.4238 -8.907012488246005 2.9770269803762055 4.693819112734666 -6 12 -6
1302 434 2 0.4238 -10.582749829443731 -1.6910201598046353 6.522247380135557 -2 11 -9
1301 434 2 0.4238 -10.083914041802966 -1.1914973940061628 5.0497728439242415 -2 11 -9
1417 473 1 -0.8476 -7.965494475619476 2.9303714659377427 4.360150156597893 -6 12 -6
1104 368 2 0.4238 -4.8580623185946425 3.163802314721469 5.158252190483008 11 -7 6
1419 473 2 0.4238 -7.355245944144477 3.365085218079342 5.022410507434671 -6 12 -6
340 114 1 -0.8476 -5.505032718386337 1.3676962541750441 7.5143570099843195 1 7 2
341 114 2 0.4238 -5.687174970287018 1.2112630223326377 6.54362479944848 1 7 2
1475 492 2 0.4238 -5.808372317849199 -0.4316122341638149 5.563382368612157 -2 -10 -18
342 114 2 0.4238 -4.883699495849621 0.6620186895033342 7.854845305023716 1 7 2