LAMMPS data file via write_data, version 28 Oct 2021, timestep = 202000

1516 atoms
11 atom types
1000 bonds
1 bond types
500 angles
1 angle types

-12.328706842486659 12.328706842486659 xlo xhi
-12.328706842486659 12.328706842486659 ylo yhi
-12.328706842486659 12.328706842486659 zlo zhi

Masses

1 15.9994
2 1.00794
3 22.989769
4 35.453
5 60
6 60
7 60
8 15.9994
9 1.00794
10 22.989769
11 35.453

PairIJ Coeffs # lj/cut/coul/long

1 1 0.155354 3.169 9
1 2 0 0 9
1 3 0.234061 2.66425 9
1 4 0.044567 3.99975 9
1 5 0 0 9
1 6 0 0 9
1 7 0 0 9
1 8 0.155354 3.169 9
1 9 0 0 9
1 10 0.234061 2.66425 9
1 11 0.044567 3.99975 9
2 2 0 0 9
2 3 0 1.07975 9
2 4 0 2.41525 9
2 5 0 0 9
2 6 0 0 9
2 7 0 0 9
2 8 0 1.5845 9
2 9 0 0 9
2 10 0 1.07975 9
2 11 0 2.41525 9
3 3 0.352644 2.1595 9
3 4 0.067146 3.495 9
3 5 0 0 9
3 6 0 0 9
3 7 0 0 9
3 8 0.234061 2.66425 9
3 9 0 0 9
3 10 0.352644 2.1595 9
3 11 0.067146 3.495 9
4 4 0.0127851 4.8305 9
4 5 0 0 9
4 6 0 0 9
4 7 0 0 9
4 8 0.044567 3.99975 9
4 9 0 0 9
4 10 0.067146 3.495 9
4 11 0.0127851 4.8305 9
5 5 0 0 9
5 6 0 0 9
5 7 0 0 9
5 8 0 1.5845 9
5 9 0 0 9
5 10 0 1.07975 9
5 11 0 2.41525 9
6 6 0 0 9
6 7 0 0 9
6 8 0 1.5845 9
6 9 0 0 9
6 10 0 1.07975 9
6 11 0 2.41525 9
7 7 0 0 9
7 8 0 1.5845 9
7 9 0 0 9
7 10 0 1.07975 9
7 11 0 2.41525 9
8 8 0.155354 3.169 9
8 9 0 0 9
8 10 0.234061 2.66425 9
8 11 0.044567 3.99975 9
9 9 0 0 9
9 10 0 1.07975 9
9 11 0 2.41525 9
10 10 0.352644 2.1595 9
10 11 0.067146 3.495 9
11 11 0.0127851 4.8305 9

Bond Coeffs # harmonic

1 100000 1

Angle Coeffs # harmonic

1 100000 109.47

Atoms # full

36 12 2 0.4238 -10.794846844257393 -11.865809623771819 -11.157295674603134 -6 20 11
34 12 1 -0.8476 -9.89986756063107 -11.518114648978143 -11.436830025450968 -6 20 11
192 64 2 0.4238 -6.365660200250419 -10.823093804018942 -7.676186581191784 -12 6 -6
107 36 2 0.4238 -10.046003463995127 -8.664167512338333 -6.6036153757111675 -6 17 24
145 49 1 -0.8476 -6.5451276296343375 -9.240060160891302 -8.226174865699372 3 -20 -6
147 49 2 0.4238 -7.4605804901628305 -9.100719423314818 -8.603733398370435 3 -20 -6
530 177 2 0.4238 -11.05157643061675 -12.269003057718223 -7.114922794606998 -5 23 21
66 22 2 0.4238 -6.246621112285343 -8.388431859101724 -6.651025654140747 4 30 -8
529 177 1 -0.8476 -10.870938385594723 -11.667705608911733 -7.8932743891148425 -5 23 21
531 177 2 0.4238 -10.790096791671829 -10.723670353596377 -7.573458344798224 -5 23 21
267 89 2 0.4238 -9.833009722487903 -8.813744915911634 -8.883766345914019 3 9 -7
190 64 1 -0.8476 -6.464123716479931 -11.771727114988296 -7.375488432098081 -12 6 -6
787 263 1 -0.8476 -12.05870718726275 -9.450372442305829 -12.259370142800242 10 2 -20
788 263 2 0.4238 -11.095806504324578 -9.673837781052756 -12.108024889400191 10 2 -20
265 89 1 -0.8476 -9.03857702044442 -9.089334270065352 -9.42501223391242 3 9 -7
266 89 2 0.4238 -9.211964963302691 -9.982151436454124 -9.840745547210993 3 9 -7
930 310 2 0.4238 -12.193451581337001 -7.5832594702747524 -7.800045714961788 -10 -2 -13
928 310 1 -0.8476 -11.712989293141565 -8.090095521993831 -8.515791926323576 -10 -2 -13
929 310 2 0.4238 -12.273692428920752 -8.110287757525171 -9.343574787659842 -10 -2 -13
707 236 2 0.4238 -8.428088733237065 -7.794301496279577 -10.478589830103298 14 10 16
708 236 2 0.4238 -8.210255544136892 -6.184542196181611 -10.645629410822352 14 10 16
1149 383 2 0.4238 -9.91700837559441 -6.543297295989572 -11.90276465066863 -3 -2 0
706 236 1 -0.8476 -8.426523882314704 -7.0335822421163625 -11.127684697553102 14 10 16
49 17 1 -0.8476 -3.1618869515435613 -11.574293658304386 -10.764184884385482 -3 -4 -13
1266 422 2 0.4238 -3.9888933917566707 -8.68883804630832 -10.403152932606453 1 7 -7
1264 422 1 -0.8476 -4.874945936049917 -9.152399876980363 -10.409521318680307 1 7 -7
51 17 2 0.4238 -3.9189962033156096 -10.957588217455971 -10.548595027900674 -3 -4 -13
1265 422 2 0.4238 -5.454494680994644 -8.753925329684995 -11.120409142725162 1 7 -7
146 49 2 0.4238 -5.876175450272082 -9.25111870190112 -8.969410802868596 3 -20 -6
1252 418 1 -0.8476 -0.6246048559612518 -7.196608095963066 -7.814811722705511 4 -16 10
1254 418 2 0.4238 -0.7163446284097432 -7.868076667888995 -7.079465600463211 4 -16 10
70 24 1 -0.8476 -2.40002635561798 -7.794992787229309 -9.865776673364017 -11 0 -18
72 24 2 0.4238 -1.7576061854042209 -7.679118520036794 -9.1082220716839 -11 0 -18
17 6 2 0.4238 -2.269125832735421 -12.253979577475569 -9.382867994380474 1 2 -3
71 24 2 0.4238 -1.978742276740176 -7.4704677682552765 -10.712666416589299 -11 0 -18
1246 416 1 -0.8476 -0.5094918203878933 -10.314485321927158 -11.538060075273414 -9 4 10
1247 416 2 0.4238 -1.421171311569534 -10.532448238300686 -11.189702976900929 -9 4 10
1300 434 1 -0.8476 -10.504468403601306 -2.0361848262032733 -6.782698822126925 -2 11 -8
1301 434 2 0.4238 -10.250572259283135 -2.330443525760769 -7.704093647772754 -2 11 -8
609 203 2 0.4238 -8.081268754129638 -5.546182832103053 -7.827204819841076 1 23 3
30 10 2 0.4238 -6.886516501350885 -1.9322700937002857 -11.236234837280495 2 -15 2
1512 0 4 -1 -6.549637113785466 -4.981932342853036 -9.451111123189671 5 -1 -5
607 203 1 -0.8476 -8.849571007415356 -5.797477168059362 -7.238491682579065 1 23 3
28 10 1 -0.8476 -6.502580639433013 -2.377954599395057 -12.044924179595599 2 -15 2
1302 434 2 0.4238 -11.144085145996815 -1.2697657390573447 -6.841959028320814 -2 11 -8
29 10 2 0.4238 -6.527583655625947 -3.3700875634958347 -11.922182987374777 2 -15 2
279 93 2 0.4238 -6.667451971401999 -0.4804141353704452 -8.055277726198433 -18 -4 -15
408 136 2 0.4238 -6.424500564114923 -2.9578407333516363 -8.65333267210728 -19 -13 -10
1115 372 2 0.4238 -11.665046871789372 -1.5955401912832023 -10.962478824097854 13 -3 1
608 203 2 0.4238 -9.708013734834548 -5.544082279409372 -7.684459357378965 1 23 3
445 149 1 -0.8476 -10.986787120905323 -5.019609826798818 -8.72409720201795 4 -5 6
276 92 2 0.4238 -9.524632938241465 -1.96549675875651 -11.022298272895622 3 13 -12
446 149 2 0.4238 -11.833167319009938 -4.612463483126629 -8.380742058007757 4 -5 6
275 92 2 0.4238 -9.131581688784546 -0.7689980477280471 -12.061807978523479 3 13 -12
274 92 1 -0.8476 -9.757859161685257 -1.043774714608631 -11.332223799418532 3 13 -12
264 88 2 0.4238 -8.359558222759512 -3.844142722338722 -10.091836344141878 9 -2 10
262 88 1 -0.8476 -9.168721659096454 -3.3035799258409213 -9.861476096618665 9 -2 10
447 149 2 0.4238 -11.10083680276505 -6.010072296700694 -8.801527665417622 4 -5 6
263 88 2 0.4238 -9.953895491316981 -3.9118495723036553 -9.745159607737124 9 -2 10
772 258 1 -0.8476 -1.9334885735172467 -3.030459928241809 -7.502535761234518 -4 9 10
406 136 1 -0.8476 -5.906782776076325 -2.116398049476519 -8.498537713427172 -19 -13 -10
774 258 2 0.4238 -2.319976175207877 -3.7087084742654923 -8.127535619051987 -4 9 10
1033 345 1 -0.8476 -1.0807731933095521 -4.954185502243515 -10.77134496998439 11 -3 3
1035 345 2 0.4238 -0.46361450713071584 -5.471848403297959 -10.178757555165 11 -3 3
407 136 2 0.4238 -5.034497753280609 -2.1674944060427723 -8.984877705773135 -19 -13 -10
1034 345 2 0.4238 -0.9750029605807846 -3.9764799445869663 -10.589894633394051 11 -3 3
1272 424 2 0.4238 -1.469263701655958 -0.028372862611172778 -8.199408867567975 -5 -19 17
1271 424 2 0.4238 -0.8332205154957695 -1.4811613021010892 -7.810135010321644 -5 -19 17
1270 424 1 -0.8476 -0.6655142836282693 -0.49553361134653073 -7.83094305866196 -5 -19 17
1171 391 1 -0.8476 -4.0585300857890765 -5.697837924386219 -11.648441759511492 -2 4 2
1211 404 2 0.4238 -5.073312718635212 -2.5494333329276557 -6.864537657123092 -14 -12 -5
1172 391 2 0.4238 -3.2224070210297864 -5.376072408234921 -11.204164385285974 -2 4 2
1173 391 2 0.4238 -4.812312395509853 -5.682088212038343 -10.991491249285907 -2 4 2
863 288 2 0.4238 -4.354229962412726 -1.7567423642042996 -10.780474846744402 3 -15 23
864 288 2 0.4238 -2.824785102765775 -2.2366118566728233 -10.468701508709188 3 -15 23
862 288 1 -0.8476 -3.7127432024422387 -2.023393947416986 -10.061161488440998 3 -15 23
171 57 2 0.4238 -3.595961556930982 -0.6074054204609247 -8.5039313363849 -4 8 20
773 258 2 0.4238 -2.4771136228933006 -3.0022509466920955 -6.663669743964679 -4 9 10
717 239 2 0.4238 -4.295624574566176 -4.841879986922754 -8.551415682757618 5 3 5
715 239 1 -0.8476 -3.4466571498930456 -5.301529321641428 -8.290653273466331 5 3 5
716 239 2 0.4238 -3.347918017805494 -6.144413370299636 -8.819630793834722 5 3 5
466 156 1 -0.8476 -1.4803085786258716 -2.094009557063057 -11.541341212292918 8 2 -10
467 156 2 0.4238 -1.0584802582315458 -1.1968468381775033 -11.672414117656698 8 2 -10
201 67 2 0.4238 -3.656001999111778 -5.705685443762396 -6.491433830968687 6 -4 -8
415 139 1 -0.8476 -8.034821977196346 -7.089347121773588 -2.4120006078974203 12 2 -19
416 139 2 0.4238 -7.817611315642809 -6.718143889663392 -3.314800355212695 12 2 -19
417 139 2 0.4238 -7.463728916491236 -7.890930008705722 -2.2349766046933635 12 2 -19
106 36 1 -0.8476 -10.219775854979616 -9.355219965189248 -5.901995951475582 -6 17 24
108 36 2 0.4238 -10.994531199213444 -9.069879079340511 -5.337766463299633 -6 17 24
399 133 2 0.4238 -7.824408063416645 -11.265849049965524 -5.818763848405121 -1 15 1
398 133 2 0.4238 -9.238228618159678 -10.73522741503838 -5.197288144384499 -1 15 1
397 133 1 -0.8476 -8.486902870778536 -11.384512825216246 -5.079142694558758 -1 15 1
251 84 2 0.4238 -12.193008845606721 -9.132971453680463 -1.757455233418531 7 -1 12
1016 339 2 0.4238 -6.587567427674226 -6.446506082436018 -1.7607966162144848 -14 -8 16
795 265 2 0.4238 -9.285658779169982 -11.313032960261177 -1.6761221827222208 -9 21 -4
1122 374 2 0.4238 -7.5725600319968445 -9.919077027708434 -1.0671091895887042 -12 12 24
1120 374 1 -0.8476 -6.961374281514001 -9.16229346787186 -0.8352673700697331 -12 12 24
1256 419 2 0.4238 -6.998982211059336 -6.695329388384938 -5.189115613379324 -2 -4 3
793 265 1 -0.8476 -8.393694417279864 -11.169817575166684 -2.1049679408799165 -9 21 -4
794 265 2 0.4238 -8.452500449112371 -11.391073754026904 -3.0784191971442034 -9 21 -4
99 33 2 0.4238 -12.203676549377317 -11.196166314565234 -1.1675551957560675 7 7 -14
97 33 1 -0.8476 -11.34399649335995 -11.672843968079272 -0.9838475749290367 7 7 -14
927 309 2 0.4238 -11.092301699515177 -7.13396596433334 -1.52030361290978 -17 0 16
925 309 1 -0.8476 -10.348832718010419 -7.6058877243475305 -1.0464218224002462 -17 0 16
926 309 2 0.4238 -9.55577610512824 -7.670993927517775 -1.6520965412567747 -17 0 16
1487 496 2 0.4238 -6.186049057531734 -11.654404694325756 -1.6304585897770938 -2 -3 -3
888 296 2 0.4238 -0.20851370440430017 -8.929806508040098 -2.254391853540737 3 9 2
81 27 2 0.4238 -1.368678242010139 -8.77585292875806 -4.764079186144809 -2 -3 -12
963 321 2 0.4238 -1.0880367299990823 -11.017779711791032 -2.4653647029459247 -5 -13 7
64 22 1 -0.8476 -5.77305103418754 -8.065993923321363 -5.831400553362722 4 30 -8
65 22 2 0.4238 -5.219005496907249 -8.807580171322352 -5.453110453150017 4 30 -8
1406 469 2 0.4238 -1.4269269248635705 -11.543623549137964 -5.666357906743184 2 -1 -8
1405 469 1 -0.8476 -2.2643586814683747 -11.969464555646995 -6.008976808485042 2 -1 -8
961 321 1 -0.8476 -1.4281115191589002 -10.171965417554553 -2.8764210258128173 -5 -13 7
962 321 2 0.4238 -2.3116549616440984 -9.936392770485039 -2.471607342489472 -5 -13 7
79 27 1 -0.8476 -0.4540499677830727 -8.77945882253747 -5.16838248653094 -2 -3 -12
632 211 2 0.4238 -4.753838801647309 -8.624360915285042 -2.3063752576396137 -5 -5 4
633 211 2 0.4238 -4.3513098598347835 -10.199380819636058 -2.1515755290089817 -5 -5 4
631 211 1 -0.8476 -4.010729956496821 -9.288809568269249 -2.3858522348540543 -5 -5 4
1015 339 1 -0.8476 -5.70611080478009 -6.192362417875099 -1.3627206332572843 -14 -8 16
200 67 2 0.4238 -4.481634220337717 -6.898712364995863 -5.7419690731265085 6 -4 -8
1001 334 2 0.4238 -4.10197485718173 -9.94579448111429 -4.143604661660591 1 -9 -26
1000 334 1 -0.8476 -4.2689998638450515 -9.987864227019934 -5.1286692769808715 1 -9 -26
401 134 2 0.4238 -3.877367126633546 -12.286629586985123 -0.9406115846304441 -22 3 -23
1002 334 2 0.4238 -3.68134912417349 -10.68648999900318 -5.536846645572805 1 -9 -26
400 134 1 -0.8476 -3.207382778261568 -12.31648993950801 -0.19882357703405518 -22 3 -23
1382 461 2 0.4238 -4.052908657935056 -6.91698408500416 -1.0359938282272605 7 3 -16
1383 461 2 0.4238 -2.970284697956009 -8.091357349517 -0.6962171477667063 7 3 -16
1381 461 1 -0.8476 -3.292898793190325 -7.179722056578672 -0.441542274127773 7 3 -16
1486 496 1 -0.8476 -5.2590992226728615 -11.732609894445051 -1.997430012970998 -2 -3 -3
1273 425 1 -0.8476 -8.710053455082258 -1.2051146916400022 -0.38613245434156696 0 13 -13
1275 425 2 0.4238 -8.685006828860637 -2.175613259238194 -0.6259762309166863 0 13 -13
494 165 2 0.4238 -11.213087321583068 -3.1052351161627403 -5.746406865424448 -16 -12 6
1377 459 2 0.4238 -9.330728263901896 -4.5533190751915695 -1.5546432684299578 -7 4 -5
1375 459 1 -0.8476 -8.954589684778794 -3.9858182514418274 -0.822193479639509 -7 4 -5
1274 425 2 0.4238 -8.003456140965032 -0.7168476935019754 -0.8983193578030679 0 13 -13
493 165 1 -0.8476 -11.71249985208551 -3.8518315456065455 -5.306861672921483 -16 -12 6
1376 459 2 0.4238 -9.676616255335572 -3.767101721863254 -0.16579356312720073 -7 4 -5
1286 429 2 0.4238 -7.42800796985491 -2.665152294614913 -3.6798136330590197 0 17 14
1170 390 2 0.4238 -9.543208673536414 -5.7429201383215736 -3.4724983305181354 0 -10 -17
1168 390 1 -0.8476 -10.213192951394825 -5.035542684650729 -3.2472051389539676 0 -10 -17
1257 419 2 0.4238 -8.332058447053184 -5.929089968454 -5.739083393354493 -2 -4 3
1255 419 1 -0.8476 -7.76497132964891 -6.10506140992805 -4.934430483940909 -2 -4 3
1212 404 2 0.4238 -6.2777353806112695 -2.4923120429589183 -5.763273314356744 -14 -12 -5
1169 390 2 0.4238 -10.654430700822072 -4.715259584773427 -4.085505899845639 0 -10 -17
645 215 2 0.4238 -10.417725004689522 -0.4297356869395266 -0.5035808349029693 -5 -2 23
1287 429 2 0.4238 -7.976280440525926 -3.780749580586763 -2.620795535742305 0 17 14
643 215 1 -0.8476 -11.330803235833104 -0.021954126309031707 -0.5082911999786983 -5 -2 23
1285 429 1 -0.8476 -7.247570878975897 -3.1222459515349428 -2.8088785684267563 0 17 14
830 277 2 0.4238 -8.653744977232115 -2.0072016172464533 -5.8488200099932035 3 -9 -11
829 277 1 -0.8476 -7.876959022055437 -2.4619207806264445 -5.413098047394066 3 -9 -11
831 277 2 0.4238 -7.874015037090829 -3.430023515504237 -5.66367358665757 3 -9 -11
1046 349 2 0.4238 -12.227202548298726 -5.896719594643671 -3.10874990497782 -2 -2 0
988 330 1 -0.8476 -3.046874685601786 -3.1757772885897158 -4.663138439239543 4 3 -10
481 161 1 -0.8476 -3.551191922988595 -5.476711853789442 -2.99779526610328 -1 4 -7
483 161 2 0.4238 -4.439825305852603 -5.387323283908367 -2.547950476949424 -1 4 -7
482 161 2 0.4238 -3.6745357263106477 -5.88891832041634 -3.9005088929919047 -1 4 -7
1182 394 2 0.4238 -0.2586980996903758 -3.2974813292044463 -5.55057870884326 -20 0 2
990 330 2 0.4238 -3.044758822849392 -4.0298572544295865 -4.142981649088378 4 3 -10
1181 394 2 0.4238 -0.6395576752675911 -1.7312854472651669 -5.288556454607306 -20 0 2
365 122 2 0.4238 -1.4767070129745257 -2.3672358302377 -3.095255580703096 9 -6 3
364 122 1 -0.8476 -1.4104233112943145 -1.7261012256502912 -2.3306820837008324 9 -6 3
1072 358 1 -0.8476 -1.4075819682366006 -0.09728981264535363 -4.992397959886915 15 -9 -6
32 11 2 0.4238 -4.262717252362686 -2.408696171904312 -1.6416525627000471 14 0 2
33 11 2 0.4238 -5.58252051546696 -2.499041583838972 -2.5990643410313012 14 0 2
31 11 1 -0.8476 -4.768167012355272 -1.9617011248859626 -2.379714979887668 14 0 2
1506 0 3 1 -3.133161642844188 -0.8531609480812836 -3.723976296084137 5 3 -6
431 144 2 0.4238 -1.6184501659526642 -5.425778733200439 -5.801476962027296 -6 20 -15
1415 472 2 0.4238 -0.662963876497674 -5.937075516757734 -1.2458744942181834 5 -6 4
809 270 2 0.4238 -5.805330007950442 -0.5001554887261417 -1.66021946622541 -22 5 -1
366 122 2 0.4238 -1.5139180246132966 -2.2230167106005823 -1.4690650595650023 9 -6 3
430 144 1 -0.8476 -0.7111256671751178 -5.1247243945158045 -5.507966639370688 -6 20 -15
1416 472 2 0.4238 -1.7918047464310582 -5.499952122138036 -2.3419225071385448 5 -6 4
432 144 2 0.4238 -0.22231540971388775 -5.893250012132857 -5.095107575143204 -6 20 -15
1414 472 1 -0.8476 -0.8142945582684469 -5.647235494452815 -2.190920160942886 5 -6 4
1210 404 1 -0.8476 -5.313664389146044 -2.7150664904479527 -5.9080769492550305 -14 -12 -5
1017 339 2 0.4238 -5.856175315993889 -5.598616630196739 -0.5721725680737357 -14 -8 16
292 98 1 -0.8476 -3.447364013316813 -2.8983426611534444 -0.2377189259413388 4 1 5
199 67 1 -0.8476 -3.97857749494335 -6.044931253034568 -5.60776116271577 6 -4 -8
989 330 2 0.4238 -3.916119673011293 -3.0834722397098044 -5.148847385552141 4 3 -10
1113 371 2 0.4238 -10.003178667810722 -8.531351571352527 0.30780062531509067 -8 13 3
1112 371 2 0.4238 -10.480797806562798 -9.911565640018814 1.0382587651241035 -8 13 3
687 229 2 0.4238 -8.571041401958652 -6.635539412986508 4.2706517830245705 -11 6 -13
920 307 2 0.4238 -7.377301548514295 -9.820517168794572 4.951841583968244 -4 17 1
686 229 2 0.4238 -7.850874409114639 -6.273997309120744 5.6909781933928425 -11 6 -13
98 33 2 0.4238 -11.221937958457277 -11.771342773886035 0.003785592111972491 7 7 -14
506 169 2 0.4238 -10.136221681065706 -6.239409592433019 3.098545678556455 2 -12 13
505 169 1 -0.8476 -9.894491706804132 -7.197540035063988 3.2520778652847024 2 -12 13
507 169 2 0.4238 -9.816871302581134 -7.66679981932549 2.3724245839220153 2 -12 13
885 295 2 0.4238 -11.060002892476032 -7.893821429884403 5.3259316404743995 -8 -8 13
883 295 1 -0.8476 -11.477075806424454 -7.315246291999119 6.026874625036756 -8 -8 13
1111 371 1 -0.8476 -10.124600461061737 -8.989295361448995 1.1884620424939243 -8 13 3
1027 343 1 -0.8476 -10.37770722656486 -12.301275545253471 5.683876626576078 -3 14 -14
679 227 1 -0.8476 -11.61733534071863 -10.139076069139954 4.184409600457398 -7 25 12
680 227 2 0.4238 -11.308022951455214 -11.023191926411076 4.534672318556966 -7 25 12
681 227 2 0.4238 -10.853417440137724 -9.67066447763276 3.7405178215724018 -7 25 12
921 307 2 0.4238 -7.8917760717148875 -8.489308858576086 4.158192254889984 -4 17 1
733 245 1 -0.8476 -10.719969556014478 -11.82101724916173 1.4424153382477698 -14 7 3
734 245 2 0.4238 -10.125400930325522 -11.583382512467335 2.210554388245594 -14 7 3
919 307 1 -0.8476 -7.548118453944229 -9.422232207828582 4.050614326141469 -4 17 1
902 301 2 0.4238 -8.162699860886836 -10.888953518973675 3.4715702379713473 9 19 -4
551 184 2 0.4238 -6.686587080085466 -9.172574911687908 2.4912518957973884 -11 -17 -9
901 301 1 -0.8476 -8.7628614819295 -11.653205114471241 3.235464995861701 9 19 -4
1121 374 2 0.4238 -6.84438042604377 -9.120314768805988 0.1569877813840641 -12 12 24
1362 454 2 0.4238 -3.434772350692789 -8.074428199322877 4.884284838969945 10 6 -9
309 103 2 0.4238 -3.6938407488359584 -10.649393201855306 5.262057828802634 1 24 18
1360 454 1 -0.8476 -3.8861437742397023 -7.355395290063942 5.412750270664075 10 6 -9
1361 454 2 0.4238 -4.3069744340581 -6.697196339204927 4.788493918616455 10 6 -9
1515 0 4 -1 -2.4591747639950015 -9.335326917310983 3.558163245199106 7 -7 10
90 30 2 0.4238 -5.2791871193777595 -10.367719460639313 1.7275748792729537 -11 8 -20
402 134 2 0.4238 -3.653977936945001 -12.077792110148241 0.6634967021500433 -22 3 -23
122 41 2 0.4238 -3.7611321107918485 -6.8891758363526305 1.4250719466277815 6 -2 -6
121 41 1 -0.8476 -4.193711470826981 -7.0502099070119195 2.312181228193735 6 -2 -6
123 41 2 0.4238 -3.7115739434376245 -7.784754666737789 2.7896826254849945 6 -2 -6
1193 398 2 0.4238 -0.8017392582747505 -8.159826565730208 1.6821635967921829 9 -16 20
89 30 2 0.4238 -4.019485196549201 -10.569307864264756 2.746980706223864 -11 8 -20
88 30 1 -0.8476 -4.595762622340308 -11.016257033502452 2.0627598385399217 -11 8 -20
307 103 1 -0.8476 -3.9841900835463218 -11.220967683106377 6.029534018105947 1 24 18
890 297 2 0.4238 -1.7283849433217977 -11.71037913163401 0.5784961195346483 -25 -2 -2
550 184 1 -0.8476 -6.153360867085155 -9.006395326964892 1.6617495589148898 -11 -17 -9
552 184 2 0.4238 -5.64067147102815 -8.153490741506854 1.7603569799149188 -11 -17 -9
891 297 2 0.4238 -0.35437758376174777 -11.580348840258921 1.4513510719829235 -25 -2 -2
663 221 2 0.4238 -0.7262739880020579 -8.132581063739138 4.610653500918426 2 -11 7
889 297 1 -0.8476 -0.8468312731640193 -11.243540076386573 0.6488124912532083 -25 -2 -2
1192 398 1 -0.8476 -0.43150909385006564 -8.482469134594668 0.8110441528571286 9 -16 20
1194 398 2 0.4238 -0.6932406324881679 -9.437384135756664 0.6708509374789013 9 -16 20
228 76 2 0.4238 -1.9770979091090357 -12.065221422705026 5.369668360549218 20 11 -7
226 76 1 -0.8476 -1.4664196037121968 -11.980898909396497 4.514029702169745 20 11 -7
227 76 2 0.4238 -1.718462207513987 -11.12726752329453 4.05816932498316 20 11 -7
851 284 2 0.4238 -11.86154430557287 -4.848326551763502 4.44020169851621 -6 -4 -3
850 284 1 -0.8476 -11.00370170771177 -4.587607693620107 3.9973114532027036 -6 -4 -3
852 284 2 0.4238 -10.316898088828058 -4.383754678939836 4.694996636134375 -6 -4 -3
678 226 2 0.4238 -8.775871510572413 -4.44844156137807 5.711703399341358 -4 7 8
418 140 1 -0.8476 -6.961907829316859 -0.07513605161121184 4.911003227059746 -26 -6 10
522 174 2 0.4238 -11.83630691344052 -4.043798141536506 0.9415062829922842 -16 -8 -8
685 229 1 -0.8476 -8.009257175227798 -5.963821606808948 4.753574139260193 -11 6 -13
521 174 2 0.4238 -10.72252638248281 -4.02530634765577 2.135586819712893 -16 -8 -8
520 174 1 -0.8476 -10.932389465989122 -3.7107079274770793 1.2098414697142683 -16 -8 -8
420 140 2 0.4238 -6.536884998982531 -0.7115153328127111 5.554739905664894 -26 -6 10
915 305 2 0.4238 -9.372949178016327 -0.8122847464423391 4.704839642217101 7 7 9
913 305 1 -0.8476 -9.8179740863105 -1.1006171912266787 5.552681401969577 7 7 9
1397 466 2 0.4238 -6.416295372085519 -5.599956560519713 4.011251269678118 1 3 -4
1311 437 2 0.4238 -7.5224602645825875 -0.04115349481917541 3.2805751992839074 11 -13 -3
1373 458 2 0.4238 -11.369610218007837 -0.8970022849673072 2.54017435371202 32 -4 -3
1372 458 1 -0.8476 -10.371688409611519 -0.8761995830253717 2.4790378871568155 32 -4 -3
1310 437 2 0.4238 -8.763815310787166 -0.30580367541042897 2.2531138628961873 11 -13 -3
1374 458 2 0.4238 -10.05045203875517 -1.6894229580422113 1.9937605837587622 32 -4 -3
914 305 2 0.4238 -9.789147849486591 -2.0978175319531083 5.621825348822496 7 7 9
878 293 2 0.4238 -7.089301338706299 -4.334592593855802 0.3592230870789379 14 -4 0
877 293 1 -0.8476 -6.177929156582029 -4.457073631232601 0.7521852154419495 14 -4 0
644 215 2 0.4238 -11.878122631685665 -0.4215847639740513 0.22707036602696107 -5 -2 23
359 120 2 0.4238 -1.5440042474303244 -3.337329136983845 4.032984625269991 10 -16 2
293 98 2 0.4238 -4.231029905037765 -3.3672274623507246 0.16975474738718255 4 1 5
358 120 1 -0.8476 -2.3240940651232496 -3.923211782223639 3.8133911153833946 10 -16 2
294 98 2 0.4238 -2.915286067949973 -2.4516595564417862 0.48157768339930485 4 1 5
360 120 2 0.4238 -3.0204689409050953 -3.8317253234092217 4.525228284609588 10 -16 2
817 273 1 -0.8476 -4.918909908670125 -2.7927143916912254 2.7099688271200097 -15 12 -8
819 273 2 0.4238 -3.9577837219662797 -2.7957403586872935 2.433839421838515 -15 12 -8
818 273 2 0.4238 -5.104690379458086 -3.593630963398919 3.2792126521315303 -15 12 -8
1398 466 2 0.4238 -5.001445367834981 -5.71646251856298 3.2042160323302653 1 3 -4
1077 359 2 0.4238 -6.048448375362257 -0.12471605624077498 1.573238208386254 12 -25 -2
1396 466 1 -0.8476 -5.4899471455827475 -5.232123415396105 3.9300271356578858 1 3 -4
1075 359 1 -0.8476 -5.089116225080551 -0.26474132131079386 1.8183805846008276 12 -25 -2
1076 359 2 0.4238 -4.966708843672033 -1.1933816747585357 2.1686147250969583 12 -25 -2
1342 448 1 -0.8476 -0.18605500531245767 -2.155294466487245 3.629018806576598 -7 13 0
1344 448 2 0.4238 -0.44136630656566034 -1.2273073943214996 3.90044994205409 -7 13 0
259 87 1 -0.8476 -3.7527503081644475 -4.186403865253686 6.066881528715479 13 -10 -1
261 87 2 0.4238 -4.5258747601396685 -4.7171569843236245 5.719606487812067 13 -10 -1
981 327 2 0.4238 -1.7888118563931172 -0.7146994485211913 1.6935194517380783 -2 -9 -4
979 327 1 -0.8476 -1.7902271809838073 -1.7075840342286739 1.5743654917519994 -2 -9 -4
1218 406 2 0.4238 -2.318988010231587 -5.65198854089399 0.33424240514393944 2 10 -17
1216 406 1 -0.8476 -1.5978075597661245 -5.335749491000324 0.9506117864029537 2 10 -17
980 327 2 0.4238 -1.118514748324806 -2.11824474710893 2.1909526098669403 -2 -9 -4
1217 406 2 0.4238 -2.0085488497469335 -4.854899735607607 1.7252697274691169 2 10 -17
879 293 2 0.4238 -6.005174370993511 -3.7369553017005686 1.4242005237477162 14 -4 0
577 193 1 -0.8476 -6.363069220655952 -8.47160986776797 12.145965232361052 -1 -2 -10
561 187 2 0.4238 -8.518116994793965 -7.8138805267828415 7.656050486495618 -19 19 -5
559 187 1 -0.8476 -7.834364234253018 -7.43517193225339 7.032285980203865 -19 19 -5
560 187 2 0.4238 -6.920321899169022 -7.701821615813588 7.337973047239638 -19 19 -5
579 193 2 0.4238 -7.058703691598839 -7.771654058490556 12.30775202196786 -1 -2 -10
846 282 2 0.4238 -11.651286681627637 -11.684708427999038 8.189463503900035 -1 -1 3
884 295 2 0.4238 -10.800812362515488 -7.108127190690899 6.73383211857003 -8 -8 13
668 223 2 0.4238 -9.24211644727863 -9.1013360214167 9.708323771645167 3 -14 -5
669 223 2 0.4238 -10.026236503240392 -7.825355162266184 9.057395183827575 3 -14 -5
667 223 1 -0.8476 -9.563377001343987 -8.688614844834996 8.85598997627991 3 -14 -5
1147 383 1 -0.8476 -10.747765085884259 -6.215116656895574 12.305025835917176 -3 -2 -1
91 31 1 -0.8476 -7.324449314291139 -10.699183949282139 6.724246421354591 7 12 8
92 31 2 0.4238 -6.907168281979674 -11.553259975437035 7.034810590593233 7 12 8
93 31 2 0.4238 -8.2783573232743 -10.666484667855926 7.022592689863059 7 12 8
956 319 2 0.4238 -12.27975247429527 -7.1546417447537545 9.850027759133079 -8 28 -11
1029 343 2 0.4238 -9.968606528175153 -11.952520236943927 6.527100371187041 -3 14 -14
1296 432 2 0.4238 -8.916174029684905 -11.73162622227192 8.531619267744572 9 1 -18
35 12 2 0.4238 -9.808833327448088 -11.592198963362875 12.227485613731803 -6 20 10
1294 432 1 -0.8476 -9.549167436939005 -11.184671248840182 7.983733135800966 9 1 -18
1295 432 2 0.4238 -9.744831516757156 -10.326415720546942 8.458214796475444 9 1 -18
726 242 2 0.4238 -7.6438506618916024 -9.949467619379549 11.41012078793869 3 1 5
724 242 1 -0.8476 -8.376593617191036 -10.17476284814315 10.767976085483545 3 1 5
725 242 2 0.4238 -8.622534792907558 -11.138902937560196 10.867810181830867 3 1 5
350 117 2 0.4238 -4.937066815377069 -8.412157465323855 6.520846212893334 -1 1 -1
351 117 2 0.4238 -5.814808086351006 -9.65990022672777 7.103416689237916 -1 1 -1
1223 408 2 0.4238 -2.801313524683808 -7.15358110738061 6.828978328429416 9 0 -2
1224 408 2 0.4238 -2.0470881851795326 -8.448925978042999 7.476979093638596 9 0 -2
308 103 2 0.4238 -3.611355538756804 -10.8509364838026 6.880469600539106 1 24 18
1222 408 1 -0.8476 -2.1660994589389055 -7.457950790612841 7.53882498532232 9 0 -2
578 193 2 0.4238 -5.740651139310483 -8.162983056862672 11.426683877527493 -1 -2 -10
349 117 1 -0.8476 -5.306969554104449 -8.83406567535696 7.348605515151606 -1 1 -1
976 326 1 -0.8476 -1.6741244455876032 -10.10253594336743 7.661453625631021 25 16 4
465 155 2 0.4238 -1.4862457569054026 -11.355033857428964 10.692392672145113 29 -9 -14
463 155 1 -0.8476 -2.105586408535011 -11.81061778769613 10.052955139154188 29 -9 -14
1248 416 2 0.4238 -0.3635471243309478 -10.785832042296626 12.24955349568639 -9 4 9
739 247 1 -0.8476 -2.2069705545558698 -7.4018883464649505 10.19741279344329 23 -11 7
977 326 2 0.4238 -1.988289520891497 -10.647771148490483 8.438653066317537 25 16 4
740 247 2 0.4238 -1.3304241443946534 -7.243724138392138 10.652023035887458 23 -11 7
978 326 2 0.4238 -0.6770845663157683 -10.151009297522382 7.601604977871434 25 16 4
741 247 2 0.4238 -2.0453429209660303 -7.717538378998532 9.262393828105646 23 -11 7
636 212 2 0.4238 -5.823941059810065 -6.7214158431802815 9.636156139635533 0 -10 5
243 81 2 0.4238 -3.7891809738694846 -7.8744199969920095 9.880664565552033 4 4 10
241 81 1 -0.8476 -4.700725325829691 -8.28094815991733 9.81868024422767 4 4 10
1338 446 2 0.4238 -0.9391766336012193 -6.500864637516131 7.762431529246568 8 -8 3
242 81 2 0.4238 -4.861695816090025 -8.59738554287577 8.883813092928305 4 4 10
896 299 2 0.4238 -6.010243035426209 -12.06111175513257 12.254028271621893 -6 8 0
1053 351 2 0.4238 -4.854715768602386 -10.139252926070546 10.044567637304104 0 12 -19
1052 351 2 0.4238 -3.8268903613861536 -11.392003025816434 10.246727793817245 0 12 -19
1051 351 1 -0.8476 -4.788426123903011 -11.117327960075976 10.242036945872043 0 12 -19
786 262 2 0.4238 -9.216045439975517 -4.044397964699087 9.094322670682834 5 23 23
1323 441 2 0.4238 -6.484130049361701 -1.6980867710302938 10.844663245346036 11 -18 -9
1322 441 2 0.4238 -6.859901462013816 -1.090740265954393 9.376124767970241 11 -18 -9
676 226 1 -0.8476 -9.263703582089274 -3.7154402463012577 6.18578056327223 -4 7 8
784 262 1 -0.8476 -8.310600547911694 -3.6950552629529856 8.853180631951824 5 23 23
677 226 2 0.4238 -9.1073624313654 -3.7934758423967327 7.170405915014156 -4 7 8
114 38 2 0.4238 -8.217513401117108 -2.0315742907259313 8.051553332025515 0 0 5
1509 0 4 -1 -10.695740634690425 -5.792315457016385 9.188741469128745 14 14 7
1167 389 2 0.4238 -12.046062943769304 -4.819163199261231 7.693310210998481 -15 9 -4
113 38 2 0.4238 -8.70473047713511 -1.141395316420157 6.772146778852219 0 0 5
112 38 1 -0.8476 -8.26101284959946 -1.1091754676223609 7.667745421151052 0 0 5
635 212 2 0.4238 -6.775109060252322 -5.936941564141304 10.706931373568464 0 -10 5
634 212 1 -0.8476 -6.371604329009943 -5.899482032596405 9.792710037550135 0 -10 5
869 290 2 0.4238 -11.732883117003482 -1.0782397254624794 9.152407363870472 14 -3 -11
868 290 1 -0.8476 -12.303205983878488 -1.768138460435349 8.706546859681444 14 -3 -11
785 262 2 0.4238 -7.611323227715897 -4.213877261322942 9.34496828880774 5 23 23