
#===========================================================
# GENERAL PROCEDURES
#===========================================================
units		real	# g/mol, angstroms, fs, kcal/mol, K, atm, charge*angstrom
dimension	3	    # 3 dimensional simulation
#newton		off	    # use Newton's 3rd law
boundary	p p p	# perodic boundary conditions
atom_style	full    # molecular + charge
atom_modify map array

#===========================================================
# Define force field
#===========================================================
pair_style     lj/cut/coul/long 9.0 9.0 #long 14.0 14.0
pair_modify    shift yes mix arithmetic # L-B mixing rule
bond_style     harmonic
angle_style    harmonic
kspace_style   pppm 0.0001          # long-range electrostatics sum method
#kspace_modify  slab 3.0

#===========================================================
# Read restart
#===========================================================
read_data   _restart_after_MC_100.data #_restart_after_MC_500.data #_restart_after_MC_2000.data #restart_after_MC.data
Reading data file ...
  orthogonal box = (-12.373905 -12.373905 -12.373905) to (12.373905 12.373905 12.373905)
  3 by 3 by 3 MPI processor grid
  reading atoms ...
  1516 atoms
  reading velocities ...
  1516 velocities
  scanning bonds ...
  2 = max bonds/atom
  scanning angles ...
  1 = max angles/atom
  reading bonds ...
  1000 bonds
  reading angles ...
  500 angles
Finding 1-2 1-3 1-4 neighbors ...
  special bond factors lj:    0        0        0       
  special bond factors coul:  0        0        0       
     2 = max # of 1-2 neighbors
     1 = max # of 1-3 neighbors
     1 = max # of 1-4 neighbors
     2 = max # of special neighbors
  special bonds CPU = 0.004 seconds
  read_data CPU = 0.032 seconds

#===========================================================
# SET OUTPUTS
#===========================================================
thermo_style    custom step temp atoms density etotal pe ke ecoul evdwl elong ebond eangle edihed enthalpy press
thermo_modify   format float %12.6f
thermo ${thermo_freq}
thermo 5000

#===========================================================
# SET RUN PARAMETERS
#===========================================================
timestep        2.0             # fs
run_style       verlet          # Velocity-Verlet integrator

#===========================================================
# minimization
#===========================================================
neigh_modify delay 10 every 1 check yes page 500000 one 50000

#velocity        all 	create ${FINAL_TEMP} ${vseed} mom yes rot yes
##===========================================================
## Shake
##===========================================================
#group spce      type    1 2 8 9 # flying
#fix fOHs        spce    shake 0.0001 20 ${rattle_freq} b 1 a 1
#
##===========================================================
## Short Langevin
##===========================================================
#fix prod	all   	nvt temp ${FINAL_TEMP} ${FINAL_TEMP} 100.0 #iso 1.0 1.0 1000.0
#fix mom2	all   	momentum 100 linear 1 1 1
#run     ${nSteps_prod}
#unfix   prod
#unfix   mom2
#
#unfix   fOHs
#
#undump  prod
##===========================================================
## WRITE RESTART FILES, CLEANUP, AND EXIT
##===========================================================
#write_restart   ${filename}.end.restart
#write_data      ${filename}.end.data pair ij
##===========================================================

group   solvent type 1 2 
1500 atoms in group solvent
group   water   type 1 2 
1500 atoms in group water
group   ions    type 3 4
16 atoms in group ions
group   wall    type 5 6 7
0 atoms in group wall
group   flying  type 8 9 10 11
0 atoms in group flying
group   eq_run  union solvent ions flying
1516 atoms in group eq_run
            
######################################################################
pair_style   lj/cut/coul/long 9.000000 9.000000
kspace_style pppm 0.0001

# LJ JC_SPCE (neq? False)
# real particles
pair_coeff  1 1     0.155354    3.169   9.0   # O O
pair_coeff  3 3     0.352644    2.1595  9.0   # Na Na
pair_coeff  4 4     0.0127851   4.8305  9.0   # Cl Cl
# flying particles
pair_coeff  8 8     0.155354    3.169   9.0   # O O
pair_coeff  10 10   0.352644    2.1595  9.0   # Na Na
pair_coeff  11 11   0.0127851   4.8305  9.0   # Cl Cl
# wall particles: not exist now
pair_coeff  * 5 0 0 9.0
pair_coeff  * 6 0 0 9.0
pair_coeff  * 7 0 0 9.0
# hydrogens
pair_coeff  * 2 0 0 9.0 # hydrogen
pair_coeff  * 9 0 0 9.0 # flying hydrogen

# intramolecular force field
bond_coeff  1   100000   1.0
angle_coeff 1   100000   109.470000

        
pair_modify  tail no shift yes mix arithmetic # LB mixing rule
neigh_modify delay 10 every 1 check yes page 500000 one 50000
######################################################################
fix fOHs        all    shake 0.0001 20 ${rattle_freq} b 1 a 1
fix fOHs        all    shake 0.0001 20 50000 b 1 a 1
       0 = # of size 2 clusters
       0 = # of size 3 clusters
       0 = # of size 4 clusters
     500 = # of frozen angles
  find clusters CPU = 0.003 seconds
timestep 2.000000
thermo 4000
fix  eqmd   eq_run npt temp 298.150000 298.150000 200.000000 iso 1.000000 1.000000 2000.000000
run 0 # (neq? False) MD run
PPPM initialization ...
  using 12-bit tables for long-range coulomb (../kspace.cpp:340)
  G vector (1/distance) = 0.29815466
  grid = 15 15 15
  stencil order = 5
  estimated absolute RMS force accuracy = 0.027037366
  estimated relative force accuracy = 8.1422225e-05
  using single precision KISS FFT
  3d grid and FFT values/proc = 1728 150
Neighbor list info ...
  update every 1 steps, delay 10 steps, check yes
  max neighbors/atom: 50000, page size: 500000
  master list distance cutoff = 11
  ghost atom cutoff = 11
  binsize = 5.5, bins = 5 5 5
  1 neighbor lists, perpetual/occasional/extra = 1 0 0
  (1) pair lj/cut/coul/long, perpetual
      attributes: half, newton on
      pair build: half/bin/newton
      stencil: half/bin/3d
      bin: standard
SHAKE stats (type/ave/delta/count) on step 0
     1   0.999995  3.61344e-06     1500
     1   109.470   0.000211843      500
Per MPI rank memory allocation (min/avg/max) = 9.443 | 9.448 | 9.453 Mbytes
Step Temp Atoms Density TotEng PotEng KinEng E_coul E_vdwl E_long E_bond E_angle E_dihed Enthalpy Press 
       0   297.397834     1516     1.038069 -6057.712671 -6957.496421   899.783750 22810.899014  1192.109391 -30960.504825     0.000000     0.000000     0.000000 -5924.496408   602.658119 
Loop time of 3.37285e-06 on 27 procs for 0 steps with 1516 atoms

5.5% CPU use with 27 MPI tasks x no OpenMP threads

MPI task timing breakdown:
Section |  min time  |  avg time  |  max time  |%varavg| %total
---------------------------------------------------------------
Pair    | 0          | 0          | 0          |   0.0 |  0.00
Bond    | 0          | 0          | 0          |   0.0 |  0.00
Kspace  | 0          | 0          | 0          |   0.0 |  0.00
Neigh   | 0          | 0          | 0          |   0.0 |  0.00
Comm    | 0          | 0          | 0          |   0.0 |  0.00
Output  | 0          | 0          | 0          |   0.0 |  0.00
Modify  | 0          | 0          | 0          |   0.0 |  0.00
Other   |            | 3.373e-06  |            |       |100.00

Nlocal:        56.1481 ave          66 max          49 min
Histogram: 4 3 2 2 6 4 2 2 1 1
Nghost:        2716.67 ave        2767 max        2670 min
Histogram: 3 0 6 0 5 6 1 2 2 2
Neighs:        15621.4 ave       19177 max       13082 min
Histogram: 2 3 7 0 7 2 1 3 1 1

Total # of neighbors = 421777
Ave neighs/atom = 278.21702
Ave special neighs/atom = 1.9788918
Neighbor list builds = 0
Dangerous builds = 0
unfix fOHs
unfix    eqmd
# updating atom list by mol_id 500
# Number of molecules (eg water) in updating index: 500
# done updating numbering after accepted exchange
log logfile_hneqMDMC.0
