
group   solvent type 1
5001 atoms in group solvent
group   water   empty
0 atoms in group water
group   ions    type 2 3
200 atoms in group ions
group   wall    type 4 5
0 atoms in group wall
group   flying  type 6 7 8
0 atoms in group flying
group   eq_run  union solvent ions flying
5201 atoms in group eq_run
            
######################################################################
pair_style   lj/cut/coul/long 2.500000 3.500000
kspace_style pppm 0.0001

# LJ (neq? False)
# real lj particles
pair_coeff  * *         1.  1.  2.5   # solvent + ions
pair_coeff  4*5 4*5     0   0   2.5   # wall atoms

        
pair_modify  tail no shift yes mix arithmetic # LB mixing rule
neigh_modify delay 2 every 1 check yes page 500000 one 50000
######################################################################
timestep 0.005000
thermo 2000
fix  eqmd   eq_run nvt temp 1.000000 1.000000 0.500000
run 400 # (neq? False) MD run
PPPM initialization ...
  using 12-bit tables for long-range coulomb (../kspace.cpp:340)
  G vector (1/distance) = 0.80638559
  grid = 36 36 36
  stencil order = 5
  estimated absolute RMS force accuracy = 8.1797113e-05
  estimated relative force accuracy = 8.1797113e-05
  using single precision KISS FFT
  3d grid and FFT values/proc = 4913 2592
Per MPI rank memory allocation (min/avg/max) = 5.424 | 5.447 | 5.489 Mbytes
Step Temp Atoms Density TotEng PotEng KinEng E_coul E_vdwl E_long Enthalpy Press 
   10800     0.990119     5201     0.749823 -15656.954411 -23379.882286  7722.927875   -60.978599 -23005.058081  -313.845606 -8774.701223     0.992207 
   11200     0.983992     5201     0.749823 -15621.112379 -23296.251914  7675.139535   -67.709017 -22915.749607  -312.793290 -7974.429324     1.102415 
Loop time of 1.15645 on 27 procs for 400 steps with 5201 atoms

Performance: 149422.624 tau/day, 345.886 timesteps/s
92.8% CPU use with 27 MPI tasks x no OpenMP threads

MPI task timing breakdown:
Section |  min time  |  avg time  |  max time  |%varavg| %total
---------------------------------------------------------------
Pair    | 0.22269    | 0.36219    | 0.42919    |  10.1 | 31.32
Kspace  | 0.61532    | 0.68122    | 0.81586    |   7.1 | 58.91
Neigh   | 0.031882   | 0.046581   | 0.053639   |   3.0 |  4.03
Comm    | 0.048922   | 0.055316   | 0.072671   |   3.4 |  4.78
Output  | 5.2635e-05 | 5.4963e-05 | 7.8487e-05 |   0.0 |  0.00
Modify  | 0.0054466  | 0.0074283  | 0.01013    |   1.5 |  0.64
Other   |            | 0.003667   |            |       |  0.32

Nlocal:        192.630 ave         203 max         179 min
Histogram: 1 0 2 4 1 6 3 6 3 1
Nghost:        1846.89 ave        1878 max        1818 min
Histogram: 1 0 5 5 4 3 6 0 1 2
Neighs:        16467.4 ave       18075 max       14803 min
Histogram: 1 3 1 3 5 4 4 4 1 1

Total # of neighbors = 444621
Ave neighs/atom = 85.487599
Neighbor list builds = 56
Dangerous builds = 0
unfix    eqmd

group   solvent type 1
5001 atoms in group solvent
group   water   empty
0 atoms in group water
group   ions    type 2 3
200 atoms in group ions
group   wall    type 4 5
0 atoms in group wall
group   flying  type 6 7 8
0 atoms in group flying
group   eq_run  union solvent ions flying
5201 atoms in group eq_run
            
######################################################################
pair_style   lj/cut/coul/long 2.500000 3.500000
kspace_style pppm 0.0001

# LJ (neq? False)
# real lj particles
pair_coeff  * *         1.  1.  2.5   # solvent + ions
pair_coeff  4*5 4*5     0   0   2.5   # wall atoms

        
pair_modify  tail no shift yes mix arithmetic # LB mixing rule
neigh_modify delay 2 every 1 check yes page 500000 one 50000
######################################################################
# shake is off; should be a dummy run
timestep 0.005000
thermo 2000
fix  eqmd   eq_run nvt temp 1.000000 1.000000 0.500000
run 0 # (neq? False) MD run
PPPM initialization ...
  using 12-bit tables for long-range coulomb (../kspace.cpp:340)
  G vector (1/distance) = 0.80638559
  grid = 36 36 36
  stencil order = 5
  estimated absolute RMS force accuracy = 8.1797113e-05
  estimated relative force accuracy = 8.1797113e-05
  using single precision KISS FFT
  3d grid and FFT values/proc = 4913 2592
Per MPI rank memory allocation (min/avg/max) = 5.425 | 5.447 | 5.489 Mbytes
Step Temp Atoms Density TotEng PotEng KinEng E_coul E_vdwl E_long Enthalpy Press 
   11200     0.983992     5201     0.749823 -15621.112379 -23296.251914  7675.139535   -67.709017 -22915.749607  -312.793290 -7974.429324     1.102415 
Loop time of 3.43433e-06 on 27 procs for 0 steps with 5201 atoms

0.0% CPU use with 27 MPI tasks x no OpenMP threads

MPI task timing breakdown:
Section |  min time  |  avg time  |  max time  |%varavg| %total
---------------------------------------------------------------
Pair    | 0          | 0          | 0          |   0.0 |  0.00
Kspace  | 0          | 0          | 0          |   0.0 |  0.00
Neigh   | 0          | 0          | 0          |   0.0 |  0.00
Comm    | 0          | 0          | 0          |   0.0 |  0.00
Output  | 0          | 0          | 0          |   0.0 |  0.00
Modify  | 0          | 0          | 0          |   0.0 |  0.00
Other   |            | 3.434e-06  |            |       |100.00

Nlocal:        192.630 ave         203 max         178 min
Histogram: 1 0 1 2 7 2 4 4 5 1
Nghost:        1847.59 ave        1879 max        1824 min
Histogram: 2 2 4 4 6 3 3 1 0 2
Neighs:        16468.7 ave       18077 max       14773 min
Histogram: 1 3 0 4 5 5 2 4 2 1

Total # of neighbors = 444654
Ave neighs/atom = 85.493943
Neighbor list builds = 0
Dangerous builds = 0
unfix    eqmd
# selected_velocity_lj 3770 lj-solvent vel -0.370853 -0.909355 0.104518
group widom_test id  3770  # select_molecule
1 atoms in group widom_test
set atom 3770 type 6
Setting atom values ...
  1 settings made for type
run 0 post no # done selecting a flying molecule
PPPM initialization ...
  using 12-bit tables for long-range coulomb (../kspace.cpp:340)
  G vector (1/distance) = 0.80638559
  grid = 36 36 36
  stencil order = 5
  estimated absolute RMS force accuracy = 8.1797113e-05
  estimated relative force accuracy = 8.1797113e-05
  using single precision KISS FFT
  3d grid and FFT values/proc = 4913 2592
Per MPI rank memory allocation (min/avg/max) = 5.425 | 5.447 | 5.489 Mbytes
Step Temp Atoms Density TotEng PotEng KinEng E_coul E_vdwl E_long Enthalpy Press 
   11200     0.983992     5201     0.749823 -15621.112379 -23296.251914  7675.139535   -67.709017 -22915.749607  -312.793290 -7974.429324     1.102415 
Loop time of 2.87741e-06 on 27 procs for 0 steps with 5201 atoms

group noneq_run_rigid    intersect   all         water               # select_lj no selection
0 atoms in group noneq_run_rigid
group noneq_run          subtract    all         noneq_run_rigid     # select_lj no selection
5201 atoms in group noneq_run
run 0 post no # mom rev random number
PPPM initialization ...
  using 12-bit tables for long-range coulomb (../kspace.cpp:340)
  G vector (1/distance) = 0.80638559
  grid = 36 36 36
  stencil order = 5
  estimated absolute RMS force accuracy = 8.1797113e-05
  estimated relative force accuracy = 8.1797113e-05
  using single precision KISS FFT
  3d grid and FFT values/proc = 4913 2592
Per MPI rank memory allocation (min/avg/max) = 5.425 | 5.447 | 5.489 Mbytes
Step Temp Atoms Density TotEng PotEng KinEng E_coul E_vdwl E_long Enthalpy Press 
   11200     0.983992     5201     0.749823 -15621.112379 -23296.251914  7675.139535   -67.709017 -22915.749607  -312.793290 -7974.429324     1.102415 
Loop time of 2.59396e-06 on 27 procs for 0 steps with 5201 atoms

######################################################################
pair_style   lj/cut/coul/long/neq 2.500000 3.500000 11200 100 1.000000 5 0 0 1.000000 1.000000 11 1.000000
kspace_style pppm 0.0001

# LJ (neq? True)
# real lj particles
pair_coeff  * *         1.  1.  2.5   # solvent + ions
pair_coeff  4*5 4*5     0   0   2.5   # wall atoms

        
pair_modify  tail no shift yes mix arithmetic # LB mixing rule
neigh_modify delay 2 every 1 check yes page 500000 one 50000
######################################################################
timestep 0.010000
fix  eqmd  noneq_run           nve                 # nve for non-rigid
run 100 # (neq? True) MD run
PPPM initialization ...
  using 12-bit tables for long-range coulomb (../kspace.cpp:340)
  G vector (1/distance) = 0.80638559
  grid = 36 36 36
  stencil order = 5
  estimated absolute RMS force accuracy = 8.1797113e-05
  estimated relative force accuracy = 8.1797113e-05
  using single precision KISS FFT
  3d grid and FFT values/proc = 4913 2592
Neighbor list info ...
  update every 1 steps, delay 2 steps, check yes
  max neighbors/atom: 50000, page size: 500000
  master list distance cutoff = 3.8
  ghost atom cutoff = 3.8
  binsize = 1.9, bins = 11 11 11
  1 neighbor lists, perpetual/occasional/extra = 1 0 0
  (1) pair lj/cut/coul/long/neq, perpetual
      attributes: half, newton on
      pair build: half/bin/atomonly/newton
      stencil: half/bin/3d
      bin: standard
Per MPI rank memory allocation (min/avg/max) = 5.425 | 5.447 | 5.489 Mbytes
Step Temp Atoms Density TotEng PotEng KinEng E_coul E_vdwl E_long Enthalpy Press 
   11200     0.983992     5201     0.749823 -15621.112379 -23296.251914  7675.139535   -67.709017 -22915.749607  -312.793290 -7974.429324     1.102415 
   11300     0.994990     5201     0.749823 -15619.087463 -23380.006476  7760.919013   -64.447174 -23006.187322  -309.371980 -8813.060596     0.981218 
Loop time of 0.306687 on 27 procs for 100 steps with 5201 atoms

Performance: 281720.579 tau/day, 326.065 timesteps/s
92.9% CPU use with 27 MPI tasks x no OpenMP threads

MPI task timing breakdown:
Section |  min time  |  avg time  |  max time  |%varavg| %total
---------------------------------------------------------------
Pair    | 0.057251   | 0.093739   | 0.11295    |   5.3 | 30.57
Kspace  | 0.15373    | 0.17453    | 0.21265    |   4.1 | 56.91
Neigh   | 0.014426   | 0.020877   | 0.024309   |   2.0 |  6.81
Comm    | 0.013746   | 0.015535   | 0.019876   |   1.6 |  5.07
Output  | 5.4816e-05 | 5.9839e-05 | 8.0893e-05 |   0.0 |  0.02
Modify  | 0.00039482 | 0.00059317 | 0.00076164 |   0.0 |  0.19
Other   |            | 0.001358   |            |       |  0.44

Nlocal:        192.630 ave         201 max         185 min
Histogram: 4 2 1 6 1 5 1 2 2 3
Nghost:        1843.74 ave        1861 max        1823 min
Histogram: 1 2 2 4 2 3 5 4 1 3
Neighs:        16462.4 ave       17541 max       15399 min
Histogram: 5 2 0 1 3 3 6 4 2 1

Total # of neighbors = 444485
Ave neighs/atom = 85.461450
Neighbor list builds = 25
Dangerous builds = 0
unfix    eqmd

group   solvent type 1
5001 atoms in group solvent
group   water   empty
0 atoms in group water
group   ions    type 2 3
200 atoms in group ions
group   wall    type 4 5
0 atoms in group wall
group   flying  type 6 7 8
1 atoms in group flying
group   eq_run  union solvent ions flying
5201 atoms in group eq_run
            
######################################################################
pair_style   lj/cut/coul/long 2.500000 3.500000
kspace_style pppm 0.0001

# LJ (neq? False)
# real lj particles
pair_coeff  * *         1.  1.  2.5   # solvent + ions
pair_coeff  4*5 4*5     0   0   2.5   # wall atoms

        
pair_modify  tail no shift yes mix arithmetic # LB mixing rule
neigh_modify delay 2 every 1 check yes page 500000 one 50000
######################################################################
# dealing with ideal flying particles: force field=simple_lj

# Non-interacting flying lj molecule (trial deletion)
# real lj particles
pair_coeff  * *         1.  1.  2.5   # solvent + ions
pair_coeff  4*5 4*5     0   0   2.5   # wall atoms
# flying particles
pair_coeff  * 6         0   0   2.5   # flying solvent  non-interacting
pair_coeff  * 7         0   0   2.5   # flying cation   non-interacting
pair_coeff  * 8         0   0   2.5   # flying anion    non-interacting

# flying solvetn or ions
set type 6  charge 0.                       # non-interacting
Setting atom values ...
  1 settings made for charge
set type 7  charge 0.                       # non-interacting
Setting atom values ...
  0 settings made for charge
set type 8  charge 0.                       # non-interacting
Setting atom values ...
  0 settings made for charge
        
run 0 post no # making flying moelcule non-interacting
PPPM initialization ...
  using 12-bit tables for long-range coulomb (../kspace.cpp:340)
  G vector (1/distance) = 0.80638559
  grid = 36 36 36
  stencil order = 5
  estimated absolute RMS force accuracy = 8.1797113e-05
  estimated relative force accuracy = 8.1797113e-05
  using single precision KISS FFT
  3d grid and FFT values/proc = 4913 2592
Neighbor list info ...
  update every 1 steps, delay 2 steps, check yes
  max neighbors/atom: 50000, page size: 500000
  master list distance cutoff = 3.8
  ghost atom cutoff = 3.8
  binsize = 1.9, bins = 11 11 11
  1 neighbor lists, perpetual/occasional/extra = 1 0 0
  (1) pair lj/cut/coul/long, perpetual
      attributes: half, newton on
      pair build: half/bin/atomonly/newton
      stencil: half/bin/3d
      bin: standard
Per MPI rank memory allocation (min/avg/max) = 5.424 | 5.447 | 5.489 Mbytes
Step Temp Atoms Density TotEng PotEng KinEng E_coul E_vdwl E_long Enthalpy Press 
   11300     0.994990     5201     0.749823 -15615.140317 -23376.059330  7760.919013   -64.447174 -23002.240176  -309.371980 -8804.790364     0.981841 
Loop time of 2.92267e-06 on 27 procs for 0 steps with 5201 atoms

# done post_propagate after NEMD
set type 6 type 1
Setting atom values ...
  1 settings made for type
run 0 post no # lj type change (reject_delete)
PPPM initialization ...
  using 12-bit tables for long-range coulomb (../kspace.cpp:340)
  G vector (1/distance) = 0.80638559
  grid = 36 36 36
  stencil order = 5
  estimated absolute RMS force accuracy = 8.1797113e-05
  estimated relative force accuracy = 8.1797113e-05
  using single precision KISS FFT
  3d grid and FFT values/proc = 4913 2592
Per MPI rank memory allocation (min/avg/max) = 5.424 | 5.447 | 5.489 Mbytes
Step Temp Atoms Density TotEng PotEng KinEng E_coul E_vdwl E_long Enthalpy Press 
   11300     0.994990     5201     0.749823 48080.958708 40320.039695  7760.919013   -64.447174 40693.858849  -309.371980 310724.512557    37.865055 
Loop time of 2.85996e-06 on 27 procs for 0 steps with 5201 atoms

set atom 3770 charge 0.000000
Setting atom values ...
  1 settings made for charge
run 0 post no # charge return (reject_delete)
PPPM initialization ...
  using 12-bit tables for long-range coulomb (../kspace.cpp:340)
  G vector (1/distance) = 0.80638559
  grid = 36 36 36
  stencil order = 5
  estimated absolute RMS force accuracy = 8.1797113e-05
  estimated relative force accuracy = 8.1797113e-05
  using single precision KISS FFT
  3d grid and FFT values/proc = 4913 2592
Per MPI rank memory allocation (min/avg/max) = 5.424 | 5.447 | 5.489 Mbytes
Step Temp Atoms Density TotEng PotEng KinEng E_coul E_vdwl E_long Enthalpy Press 
   11300     0.994990     5201     0.749823 48080.958708 40320.039695  7760.919013   -64.447174 40693.858849  -309.371980 310724.512557    37.865055 
Loop time of 2.65644e-06 on 27 procs for 0 steps with 5201 atoms

run 0 post no # return_position back to old
PPPM initialization ...
  using 12-bit tables for long-range coulomb (../kspace.cpp:340)
  G vector (1/distance) = 0.80638559
  grid = 36 36 36
  stencil order = 5
  estimated absolute RMS force accuracy = 8.1797113e-05
  estimated relative force accuracy = 8.1797113e-05
  using single precision KISS FFT
  3d grid and FFT values/proc = 4913 2592
Per MPI rank memory allocation (min/avg/max) = 5.425 | 5.447 | 5.489 Mbytes
Step Temp Atoms Density TotEng PotEng KinEng E_coul E_vdwl E_long Enthalpy Press 
   11300     0.983992     5201     0.749823 -15621.112379 -23296.251914  7675.139535   -67.709017 -22915.749607  -312.793290 -7974.429324     1.102415 
Loop time of 2.61496e-06 on 27 procs for 0 steps with 5201 atoms

group widom_test         delete
group noneq_run          delete
group noneq_run_rigid    delete
reset_timestep 11200

group   solvent delete
group   water   delete
group   ions    delete
group   wall    delete
group   flying  delete
group   eq_run  delete
        

group   solvent type 1
5001 atoms in group solvent
group   water   empty
0 atoms in group water
group   ions    type 2 3
200 atoms in group ions
group   wall    type 4 5
0 atoms in group wall
group   flying  type 6 7 8
0 atoms in group flying
group   eq_run  union solvent ions flying
5201 atoms in group eq_run
            
######################################################################
pair_style   lj/cut/coul/long 2.500000 3.500000
kspace_style pppm 0.0001

# LJ (neq? False)
# real lj particles
pair_coeff  * *         1.  1.  2.5   # solvent + ions
pair_coeff  4*5 4*5     0   0   2.5   # wall atoms

        
pair_modify  tail no shift yes mix arithmetic # LB mixing rule
neigh_modify delay 2 every 1 check yes page 500000 one 50000
######################################################################
# shake is off; should be a dummy run
timestep 0.005000
thermo 2000
fix  eqmd   eq_run nvt temp 1.000000 1.000000 0.500000
run 0 # (neq? False) MD run
PPPM initialization ...
  using 12-bit tables for long-range coulomb (../kspace.cpp:340)
  G vector (1/distance) = 0.80638559
  grid = 36 36 36
  stencil order = 5
  estimated absolute RMS force accuracy = 8.1797113e-05
  estimated relative force accuracy = 8.1797113e-05
  using single precision KISS FFT
  3d grid and FFT values/proc = 4913 2592
Per MPI rank memory allocation (min/avg/max) = 5.425 | 5.447 | 5.489 Mbytes
Step Temp Atoms Density TotEng PotEng KinEng E_coul E_vdwl E_long Enthalpy Press 
   11200     0.983992     5201     0.749823 -15621.112379 -23296.251914  7675.139535   -67.709017 -22915.749607  -312.793290 -7974.429324     1.102415 
Loop time of 3.73263e-06 on 27 procs for 0 steps with 5201 atoms

95.3% CPU use with 27 MPI tasks x no OpenMP threads

MPI task timing breakdown:
Section |  min time  |  avg time  |  max time  |%varavg| %total
---------------------------------------------------------------
Pair    | 0          | 0          | 0          |   0.0 |  0.00
Kspace  | 0          | 0          | 0          |   0.0 |  0.00
Neigh   | 0          | 0          | 0          |   0.0 |  0.00
Comm    | 0          | 0          | 0          |   0.0 |  0.00
Output  | 0          | 0          | 0          |   0.0 |  0.00
Modify  | 0          | 0          | 0          |   0.0 |  0.00
Other   |            | 3.733e-06  |            |       |100.00

Nlocal:        192.630 ave         203 max         178 min
Histogram: 1 0 1 2 7 2 4 4 5 1
Nghost:        1847.59 ave        1879 max        1824 min
Histogram: 2 2 4 4 6 3 3 1 0 2
Neighs:        16468.7 ave       18077 max       14773 min
Histogram: 1 3 0 4 5 5 2 4 2 1

Total # of neighbors = 444654
Ave neighs/atom = 85.493943
Neighbor list builds = 0
Dangerous builds = 0
unfix    eqmd
# selected_velocity_lj 4814 lj-solvent vel -0.792195 0.620055 0.288489
group widom_test id  4814  # select_molecule
1 atoms in group widom_test
set atom 4814 type 6
Setting atom values ...
  1 settings made for type
run 0 post no # done selecting a flying molecule
PPPM initialization ...
  using 12-bit tables for long-range coulomb (../kspace.cpp:340)
  G vector (1/distance) = 0.80638559
  grid = 36 36 36
  stencil order = 5
  estimated absolute RMS force accuracy = 8.1797113e-05
  estimated relative force accuracy = 8.1797113e-05
  using single precision KISS FFT
  3d grid and FFT values/proc = 4913 2592
Per MPI rank memory allocation (min/avg/max) = 5.425 | 5.447 | 5.489 Mbytes
Step Temp Atoms Density TotEng PotEng KinEng E_coul E_vdwl E_long Enthalpy Press 
   11200     0.983992     5201     0.749823 -15621.112379 -23296.251914  7675.139535   -67.709017 -22915.749607  -312.793290 -7974.429324     1.102415 
Loop time of 3.08948e-06 on 27 procs for 0 steps with 5201 atoms

group noneq_run_rigid    intersect   all         water               # select_lj no selection
0 atoms in group noneq_run_rigid
group noneq_run          subtract    all         noneq_run_rigid     # select_lj no selection
5201 atoms in group noneq_run
run 0 post no # mom rev random number
PPPM initialization ...
  using 12-bit tables for long-range coulomb (../kspace.cpp:340)
  G vector (1/distance) = 0.80638559
  grid = 36 36 36
  stencil order = 5
  estimated absolute RMS force accuracy = 8.1797113e-05
  estimated relative force accuracy = 8.1797113e-05
  using single precision KISS FFT
  3d grid and FFT values/proc = 4913 2592
Per MPI rank memory allocation (min/avg/max) = 5.425 | 5.447 | 5.489 Mbytes
Step Temp Atoms Density TotEng PotEng KinEng E_coul E_vdwl E_long Enthalpy Press 
   11200     0.983992     5201     0.749823 -15621.112379 -23296.251914  7675.139535   -67.709017 -22915.749607  -312.793290 -7974.429324     1.102415 
Loop time of 3.30807e-06 on 27 procs for 0 steps with 5201 atoms

######################################################################
pair_style   lj/cut/coul/long/neq 2.500000 3.500000 11200 100 1.000000 5 0 0 1.000000 1.000000 11 1.000000
kspace_style pppm 0.0001

# LJ (neq? True)
# real lj particles
pair_coeff  * *         1.  1.  2.5   # solvent + ions
pair_coeff  4*5 4*5     0   0   2.5   # wall atoms

        
pair_modify  tail no shift yes mix arithmetic # LB mixing rule
neigh_modify delay 2 every 1 check yes page 500000 one 50000
######################################################################
timestep 0.010000
fix  eqmd  noneq_run           nve                 # nve for non-rigid
run 100 # (neq? True) MD run
PPPM initialization ...
  using 12-bit tables for long-range coulomb (../kspace.cpp:340)
  G vector (1/distance) = 0.80638559
  grid = 36 36 36
  stencil order = 5
  estimated absolute RMS force accuracy = 8.1797113e-05
  estimated relative force accuracy = 8.1797113e-05
  using single precision KISS FFT
  3d grid and FFT values/proc = 4913 2592
Neighbor list info ...
  update every 1 steps, delay 2 steps, check yes
  max neighbors/atom: 50000, page size: 500000
  master list distance cutoff = 3.8
  ghost atom cutoff = 3.8
  binsize = 1.9, bins = 11 11 11
  1 neighbor lists, perpetual/occasional/extra = 1 0 0
  (1) pair lj/cut/coul/long/neq, perpetual
      attributes: half, newton on
      pair build: half/bin/atomonly/newton
      stencil: half/bin/3d
      bin: standard
Per MPI rank memory allocation (min/avg/max) = 5.425 | 5.447 | 5.489 Mbytes
Step Temp Atoms Density TotEng PotEng KinEng E_coul E_vdwl E_long Enthalpy Press 
   11200     0.983992     5201     0.749823 -15621.112379 -23296.251914  7675.139535   -67.709017 -22915.749607  -312.793290 -7974.429324     1.102415 
   11300     0.996820     5201     0.749823 -15617.150463 -23392.349297  7775.198834   -64.913596 -23017.625227  -309.810474 -8864.844866     0.973473 
Loop time of 0.306821 on 27 procs for 100 steps with 5201 atoms

Performance: 281597.683 tau/day, 325.923 timesteps/s
92.6% CPU use with 27 MPI tasks x no OpenMP threads

MPI task timing breakdown:
Section |  min time  |  avg time  |  max time  |%varavg| %total
---------------------------------------------------------------
Pair    | 0.056764   | 0.094031   | 0.11006    |   5.2 | 30.65
Kspace  | 0.1565     | 0.1743     | 0.21312    |   4.0 | 56.81
Neigh   | 0.01444    | 0.020833   | 0.02409    |   2.0 |  6.79
Comm    | 0.013867   | 0.015642   | 0.020048   |   1.6 |  5.10
Output  | 5.4011e-05 | 5.9744e-05 | 7.9292e-05 |   0.0 |  0.02
Modify  | 0.00040218 | 0.00058224 | 0.00075415 |   0.0 |  0.19
Other   |            | 0.001375   |            |       |  0.45

Nlocal:        192.630 ave         201 max         185 min
Histogram: 3 3 1 6 1 5 1 2 3 2
Nghost:        1842.52 ave        1860 max        1822 min
Histogram: 1 1 5 2 2 5 3 5 0 3
Neighs:        16460.9 ave       17543 max       15305 min
Histogram: 2 4 1 1 4 1 6 4 3 1

Total # of neighbors = 444443
Ave neighs/atom = 85.453374
Neighbor list builds = 25
Dangerous builds = 0
unfix    eqmd

group   solvent type 1
5001 atoms in group solvent
group   water   empty
0 atoms in group water
group   ions    type 2 3
200 atoms in group ions
group   wall    type 4 5
0 atoms in group wall
group   flying  type 6 7 8
1 atoms in group flying
group   eq_run  union solvent ions flying
5201 atoms in group eq_run
            
######################################################################
pair_style   lj/cut/coul/long 2.500000 3.500000
kspace_style pppm 0.0001

# LJ (neq? False)
# real lj particles
pair_coeff  * *         1.  1.  2.5   # solvent + ions
pair_coeff  4*5 4*5     0   0   2.5   # wall atoms

        
pair_modify  tail no shift yes mix arithmetic # LB mixing rule
neigh_modify delay 2 every 1 check yes page 500000 one 50000
######################################################################
# dealing with ideal flying particles: force field=simple_lj

# Non-interacting flying lj molecule (trial deletion)
# real lj particles
pair_coeff  * *         1.  1.  2.5   # solvent + ions
pair_coeff  4*5 4*5     0   0   2.5   # wall atoms
# flying particles
pair_coeff  * 6         0   0   2.5   # flying solvent  non-interacting
pair_coeff  * 7         0   0   2.5   # flying cation   non-interacting
pair_coeff  * 8         0   0   2.5   # flying anion    non-interacting

# flying solvetn or ions
set type 6  charge 0.                       # non-interacting
Setting atom values ...
  1 settings made for charge
set type 7  charge 0.                       # non-interacting
Setting atom values ...
  0 settings made for charge
set type 8  charge 0.                       # non-interacting
Setting atom values ...
  0 settings made for charge
        
run 0 post no # making flying moelcule non-interacting
PPPM initialization ...
  using 12-bit tables for long-range coulomb (../kspace.cpp:340)
  G vector (1/distance) = 0.80638559
  grid = 36 36 36
  stencil order = 5
  estimated absolute RMS force accuracy = 8.1797113e-05
  estimated relative force accuracy = 8.1797113e-05
  using single precision KISS FFT
  3d grid and FFT values/proc = 4913 2592
Neighbor list info ...
  update every 1 steps, delay 2 steps, check yes
  max neighbors/atom: 50000, page size: 500000
  master list distance cutoff = 3.8
  ghost atom cutoff = 3.8
  binsize = 1.9, bins = 11 11 11
  1 neighbor lists, perpetual/occasional/extra = 1 0 0
  (1) pair lj/cut/coul/long, perpetual
      attributes: half, newton on
      pair build: half/bin/atomonly/newton
      stencil: half/bin/3d
      bin: standard
Per MPI rank memory allocation (min/avg/max) = 5.424 | 5.447 | 5.489 Mbytes
Step Temp Atoms Density TotEng PotEng KinEng E_coul E_vdwl E_long Enthalpy Press 
   11300     0.996820     5201     0.749823 -15613.194179 -23388.393013  7775.198834   -64.913596 -23013.668943  -309.810474 -8856.416848     0.974118 
Loop time of 3.02022e-06 on 27 procs for 0 steps with 5201 atoms

# done post_propagate after NEMD
set type 6 type 1
Setting atom values ...
  1 settings made for type
run 0 post no # lj type change (reject_delete)
PPPM initialization ...
  using 12-bit tables for long-range coulomb (../kspace.cpp:340)
  G vector (1/distance) = 0.80638559
  grid = 36 36 36
  stencil order = 5
  estimated absolute RMS force accuracy = 8.1797113e-05
  estimated relative force accuracy = 8.1797113e-05
  using single precision KISS FFT
  3d grid and FFT values/proc = 4913 2592
Per MPI rank memory allocation (min/avg/max) = 5.424 | 5.447 | 5.489 Mbytes
Step Temp Atoms Density TotEng PotEng KinEng E_coul E_vdwl E_long Enthalpy Press 
   11300     0.996820     5201     0.749823 -15312.443710 -23087.642544  7775.198834   -64.913596 -22712.918474  -309.810474 -7216.880438     1.167129 
Loop time of 3.10585e-06 on 27 procs for 0 steps with 5201 atoms

set atom 4814 charge 0.000000
Setting atom values ...
  1 settings made for charge
run 0 post no # charge return (reject_delete)
PPPM initialization ...
  using 12-bit tables for long-range coulomb (../kspace.cpp:340)
  G vector (1/distance) = 0.80638559
  grid = 36 36 36
  stencil order = 5
  estimated absolute RMS force accuracy = 8.1797113e-05
  estimated relative force accuracy = 8.1797113e-05
  using single precision KISS FFT
  3d grid and FFT values/proc = 4913 2592
Per MPI rank memory allocation (min/avg/max) = 5.424 | 5.447 | 5.489 Mbytes
Step Temp Atoms Density TotEng PotEng KinEng E_coul E_vdwl E_long Enthalpy Press 
   11300     0.996820     5201     0.749823 -15312.443710 -23087.642544  7775.198834   -64.913596 -22712.918474  -309.810474 -7216.880438     1.167129 
Loop time of 3.40126e-06 on 27 procs for 0 steps with 5201 atoms

run 0 post no # return_position back to old
PPPM initialization ...
  using 12-bit tables for long-range coulomb (../kspace.cpp:340)
  G vector (1/distance) = 0.80638559
  grid = 36 36 36
  stencil order = 5
  estimated absolute RMS force accuracy = 8.1797113e-05
  estimated relative force accuracy = 8.1797113e-05
  using single precision KISS FFT
  3d grid and FFT values/proc = 4913 2592
Per MPI rank memory allocation (min/avg/max) = 5.425 | 5.447 | 5.489 Mbytes
Step Temp Atoms Density TotEng PotEng KinEng E_coul E_vdwl E_long Enthalpy Press 
   11300     0.983992     5201     0.749823 -15621.112379 -23296.251914  7675.139535   -67.709017 -22915.749607  -312.793290 -7974.429324     1.102415 
Loop time of 2.69296e-06 on 27 procs for 0 steps with 5201 atoms

group widom_test         delete
group noneq_run          delete
group noneq_run_rigid    delete
reset_timestep 11200

group   solvent delete
group   water   delete
group   ions    delete
group   wall    delete
group   flying  delete
group   eq_run  delete
        

group   solvent type 1
5001 atoms in group solvent
group   water   empty
0 atoms in group water
group   ions    type 2 3
200 atoms in group ions
group   wall    type 4 5
0 atoms in group wall
group   flying  type 6 7 8
0 atoms in group flying
group   eq_run  union solvent ions flying
5201 atoms in group eq_run
            
######################################################################
pair_style   lj/cut/coul/long 2.500000 3.500000
kspace_style pppm 0.0001

# LJ (neq? False)
# real lj particles
pair_coeff  * *         1.  1.  2.5   # solvent + ions
pair_coeff  4*5 4*5     0   0   2.5   # wall atoms

        
pair_modify  tail no shift yes mix arithmetic # LB mixing rule
neigh_modify delay 2 every 1 check yes page 500000 one 50000
######################################################################
# shake is off; should be a dummy run
timestep 0.005000
thermo 2000
fix  eqmd   eq_run nvt temp 1.000000 1.000000 0.500000
run 0 # (neq? False) MD run
PPPM initialization ...
  using 12-bit tables for long-range coulomb (../kspace.cpp:340)
  G vector (1/distance) = 0.80638559
  grid = 36 36 36
  stencil order = 5
  estimated absolute RMS force accuracy = 8.1797113e-05
  estimated relative force accuracy = 8.1797113e-05
  using single precision KISS FFT
  3d grid and FFT values/proc = 4913 2592
Per MPI rank memory allocation (min/avg/max) = 5.425 | 5.447 | 5.489 Mbytes
Step Temp Atoms Density TotEng PotEng KinEng E_coul E_vdwl E_long Enthalpy Press 
   11200     0.983992     5201     0.749823 -15621.112379 -23296.251914  7675.139535   -67.709017 -22915.749607  -312.793290 -7974.429324     1.102415 
Loop time of 3.03981e-06 on 27 procs for 0 steps with 5201 atoms

125.5% CPU use with 27 MPI tasks x no OpenMP threads

MPI task timing breakdown:
Section |  min time  |  avg time  |  max time  |%varavg| %total
---------------------------------------------------------------
Pair    | 0          | 0          | 0          |   0.0 |  0.00
Kspace  | 0          | 0          | 0          |   0.0 |  0.00
Neigh   | 0          | 0          | 0          |   0.0 |  0.00
Comm    | 0          | 0          | 0          |   0.0 |  0.00
Output  | 0          | 0          | 0          |   0.0 |  0.00
Modify  | 0          | 0          | 0          |   0.0 |  0.00
Other   |            | 3.04e-06   |            |       |100.00

Nlocal:        192.630 ave         203 max         178 min
Histogram: 1 0 1 2 7 2 4 4 5 1
Nghost:        1847.59 ave        1879 max        1824 min
Histogram: 2 2 4 4 6 3 3 1 0 2
Neighs:        16468.7 ave       18077 max       14773 min
Histogram: 1 3 0 4 5 5 2 4 2 1

Total # of neighbors = 444654
Ave neighs/atom = 85.493943
Neighbor list builds = 0
Dangerous builds = 0
unfix    eqmd
# selected_velocity_lj 2547 lj-solvent vel -0.638003 0.424119 0.491473
group widom_test id  2547  # select_molecule
1 atoms in group widom_test
set atom 2547 type 6
Setting atom values ...
  1 settings made for type
run 0 post no # done selecting a flying molecule
PPPM initialization ...
  using 12-bit tables for long-range coulomb (../kspace.cpp:340)
  G vector (1/distance) = 0.80638559
  grid = 36 36 36
  stencil order = 5
  estimated absolute RMS force accuracy = 8.1797113e-05
  estimated relative force accuracy = 8.1797113e-05
  using single precision KISS FFT
  3d grid and FFT values/proc = 4913 2592
Per MPI rank memory allocation (min/avg/max) = 5.425 | 5.447 | 5.489 Mbytes
Step Temp Atoms Density TotEng PotEng KinEng E_coul E_vdwl E_long Enthalpy Press 
   11200     0.983992     5201     0.749823 -15621.112379 -23296.251914  7675.139535   -67.709017 -22915.749607  -312.793290 -7974.429324     1.102415 
Loop time of 2.7733e-06 on 27 procs for 0 steps with 5201 atoms

group noneq_run_rigid    intersect   all         water               # select_lj no selection
0 atoms in group noneq_run_rigid
group noneq_run          subtract    all         noneq_run_rigid     # select_lj no selection
5201 atoms in group noneq_run
run 0 post no # mom rev random number
PPPM initialization ...
  using 12-bit tables for long-range coulomb (../kspace.cpp:340)
  G vector (1/distance) = 0.80638559
  grid = 36 36 36
  stencil order = 5
  estimated absolute RMS force accuracy = 8.1797113e-05
  estimated relative force accuracy = 8.1797113e-05
  using single precision KISS FFT
  3d grid and FFT values/proc = 4913 2592
Per MPI rank memory allocation (min/avg/max) = 5.425 | 5.447 | 5.489 Mbytes
Step Temp Atoms Density TotEng PotEng KinEng E_coul E_vdwl E_long Enthalpy Press 
   11200     0.983992     5201     0.749823 -15621.112379 -23296.251914  7675.139535   -67.709017 -22915.749607  -312.793290 -7974.429324     1.102415 
Loop time of 2.58485e-06 on 27 procs for 0 steps with 5201 atoms

######################################################################
pair_style   lj/cut/coul/long/neq 2.500000 3.500000 11200 100 1.000000 5 0 0 1.000000 1.000000 11 1.000000
kspace_style pppm 0.0001

# LJ (neq? True)
# real lj particles
pair_coeff  * *         1.  1.  2.5   # solvent + ions
pair_coeff  4*5 4*5     0   0   2.5   # wall atoms

        
pair_modify  tail no shift yes mix arithmetic # LB mixing rule
neigh_modify delay 2 every 1 check yes page 500000 one 50000
######################################################################
timestep 0.010000
fix  eqmd  noneq_run           nve                 # nve for non-rigid
run 100 # (neq? True) MD run
PPPM initialization ...
  using 12-bit tables for long-range coulomb (../kspace.cpp:340)
  G vector (1/distance) = 0.80638559
  grid = 36 36 36
  stencil order = 5
  estimated absolute RMS force accuracy = 8.1797113e-05
  estimated relative force accuracy = 8.1797113e-05
  using single precision KISS FFT
  3d grid and FFT values/proc = 4913 2592
Neighbor list info ...
  update every 1 steps, delay 2 steps, check yes
  max neighbors/atom: 50000, page size: 500000
  master list distance cutoff = 3.8
  ghost atom cutoff = 3.8
  binsize = 1.9, bins = 11 11 11
  1 neighbor lists, perpetual/occasional/extra = 1 0 0
  (1) pair lj/cut/coul/long/neq, perpetual
      attributes: half, newton on
      pair build: half/bin/atomonly/newton
      stencil: half/bin/3d
      bin: standard
Per MPI rank memory allocation (min/avg/max) = 5.425 | 5.447 | 5.489 Mbytes
Step Temp Atoms Density TotEng PotEng KinEng E_coul E_vdwl E_long Enthalpy Press 
   11200     0.983992     5201     0.749823 -15621.112379 -23296.251914  7675.139535   -67.709017 -22915.749607  -312.793290 -7974.429324     1.102415 
   11300     0.995485     5201     0.749823 -15617.089616 -23381.872293  7764.782677   -64.734442 -23007.681016  -309.456836 -8828.569699     0.978694 
Loop time of 0.305705 on 27 procs for 100 steps with 5201 atoms

Performance: 282625.587 tau/day, 327.113 timesteps/s
93.2% CPU use with 27 MPI tasks x no OpenMP threads

MPI task timing breakdown:
Section |  min time  |  avg time  |  max time  |%varavg| %total
---------------------------------------------------------------
Pair    | 0.056954   | 0.093727   | 0.11117    |   5.1 | 30.66
Kspace  | 0.15503    | 0.17386    | 0.21215    |   4.0 | 56.87
Neigh   | 0.014429   | 0.020677   | 0.023491   |   1.9 |  6.76
Comm    | 0.013656   | 0.015458   | 0.019745   |   1.6 |  5.06
Output  | 5.2525e-05 | 6.0108e-05 | 8.1567e-05 |   0.0 |  0.02
Modify  | 0.00040926 | 0.00057074 | 0.00073171 |   0.0 |  0.19
Other   |            | 0.001352   |            |       |  0.44

Nlocal:        192.630 ave         202 max         184 min
Histogram: 3 1 4 3 1 5 2 5 2 1
Nghost:        1842.63 ave        1862 max        1823 min
Histogram: 1 3 2 3 2 6 6 1 2 1
Neighs:        16461.0 ave       17437 max       15309 min
Histogram: 5 1 1 1 2 3 3 7 2 2

Total # of neighbors = 444448
Ave neighs/atom = 85.454336
Neighbor list builds = 25
Dangerous builds = 0
unfix    eqmd

group   solvent type 1
5001 atoms in group solvent
group   water   empty
0 atoms in group water
group   ions    type 2 3
200 atoms in group ions
group   wall    type 4 5
0 atoms in group wall
group   flying  type 6 7 8
1 atoms in group flying
group   eq_run  union solvent ions flying
5201 atoms in group eq_run
            
######################################################################
pair_style   lj/cut/coul/long 2.500000 3.500000
kspace_style pppm 0.0001

# LJ (neq? False)
# real lj particles
pair_coeff  * *         1.  1.  2.5   # solvent + ions
pair_coeff  4*5 4*5     0   0   2.5   # wall atoms

        
pair_modify  tail no shift yes mix arithmetic # LB mixing rule
neigh_modify delay 2 every 1 check yes page 500000 one 50000
######################################################################
# dealing with ideal flying particles: force field=simple_lj

# Non-interacting flying lj molecule (trial deletion)
# real lj particles
pair_coeff  * *         1.  1.  2.5   # solvent + ions
pair_coeff  4*5 4*5     0   0   2.5   # wall atoms
# flying particles
pair_coeff  * 6         0   0   2.5   # flying solvent  non-interacting
pair_coeff  * 7         0   0   2.5   # flying cation   non-interacting
pair_coeff  * 8         0   0   2.5   # flying anion    non-interacting

# flying solvetn or ions
set type 6  charge 0.                       # non-interacting
Setting atom values ...
  1 settings made for charge
set type 7  charge 0.                       # non-interacting
Setting atom values ...
  0 settings made for charge
set type 8  charge 0.                       # non-interacting
Setting atom values ...
  0 settings made for charge
        
run 0 post no # making flying moelcule non-interacting
PPPM initialization ...
  using 12-bit tables for long-range coulomb (../kspace.cpp:340)
  G vector (1/distance) = 0.80638559
  grid = 36 36 36
  stencil order = 5
  estimated absolute RMS force accuracy = 8.1797113e-05
  estimated relative force accuracy = 8.1797113e-05
  using single precision KISS FFT
  3d grid and FFT values/proc = 4913 2592
Neighbor list info ...
  update every 1 steps, delay 2 steps, check yes
  max neighbors/atom: 50000, page size: 500000
  master list distance cutoff = 3.8
  ghost atom cutoff = 3.8
  binsize = 1.9, bins = 11 11 11
  1 neighbor lists, perpetual/occasional/extra = 1 0 0
  (1) pair lj/cut/coul/long, perpetual
      attributes: half, newton on
      pair build: half/bin/atomonly/newton
      stencil: half/bin/3d
      bin: standard
Per MPI rank memory allocation (min/avg/max) = 5.424 | 5.447 | 5.489 Mbytes
Step Temp Atoms Density TotEng PotEng KinEng E_coul E_vdwl E_long Enthalpy Press 
   11300     0.995485     5201     0.749823 -15612.919348 -23377.702025  7764.782677   -64.734442 -23003.510748  -309.456836 -8819.634442     0.979381 
Loop time of 2.93989e-06 on 27 procs for 0 steps with 5201 atoms

# done post_propagate after NEMD
set type 6 type 1
Setting atom values ...
  1 settings made for type
run 0 post no # lj type change (reject_delete)
PPPM initialization ...
  using 12-bit tables for long-range coulomb (../kspace.cpp:340)
  G vector (1/distance) = 0.80638559
  grid = 36 36 36
  stencil order = 5
  estimated absolute RMS force accuracy = 8.1797113e-05
  estimated relative force accuracy = 8.1797113e-05
  using single precision KISS FFT
  3d grid and FFT values/proc = 4913 2592
Per MPI rank memory allocation (min/avg/max) = 5.424 | 5.447 | 5.489 Mbytes
Step Temp Atoms Density TotEng PotEng KinEng E_coul E_vdwl E_long Enthalpy Press 
   11300     0.995485     5201     0.749823 -15252.990181 -23017.772858  7764.782677   -64.734442 -22643.581580  -309.456836 -6873.610603     1.208047 
Loop time of 2.81093e-06 on 27 procs for 0 steps with 5201 atoms

set atom 2547 charge 0.000000
Setting atom values ...
  1 settings made for charge
run 0 post no # charge return (reject_delete)
PPPM initialization ...
  using 12-bit tables for long-range coulomb (../kspace.cpp:340)
  G vector (1/distance) = 0.80638559
  grid = 36 36 36
  stencil order = 5
  estimated absolute RMS force accuracy = 8.1797113e-05
  estimated relative force accuracy = 8.1797113e-05
  using single precision KISS FFT
  3d grid and FFT values/proc = 4913 2592
Per MPI rank memory allocation (min/avg/max) = 5.424 | 5.447 | 5.489 Mbytes
Step Temp Atoms Density TotEng PotEng KinEng E_coul E_vdwl E_long Enthalpy Press 
   11300     0.995485     5201     0.749823 -15252.990181 -23017.772858  7764.782677   -64.734442 -22643.581580  -309.456836 -6873.610603     1.208047 
Loop time of 2.61785e-06 on 27 procs for 0 steps with 5201 atoms

run 0 post no # return_position back to old
PPPM initialization ...
  using 12-bit tables for long-range coulomb (../kspace.cpp:340)
  G vector (1/distance) = 0.80638559
  grid = 36 36 36
  stencil order = 5
  estimated absolute RMS force accuracy = 8.1797113e-05
  estimated relative force accuracy = 8.1797113e-05
  using single precision KISS FFT
  3d grid and FFT values/proc = 4913 2592
Per MPI rank memory allocation (min/avg/max) = 5.425 | 5.447 | 5.489 Mbytes
Step Temp Atoms Density TotEng PotEng KinEng E_coul E_vdwl E_long Enthalpy Press 
   11300     0.983992     5201     0.749823 -15621.112379 -23296.251914  7675.139535   -67.709017 -22915.749607  -312.793290 -7974.429324     1.102415 
Loop time of 2.76448e-06 on 27 procs for 0 steps with 5201 atoms

group widom_test         delete
group noneq_run          delete
group noneq_run_rigid    delete
reset_timestep 11200

group   solvent delete
group   water   delete
group   ions    delete
group   wall    delete
group   flying  delete
group   eq_run  delete
        

group   solvent type 1
5001 atoms in group solvent
group   water   empty
0 atoms in group water
group   ions    type 2 3
200 atoms in group ions
group   wall    type 4 5
0 atoms in group wall
group   flying  type 6 7 8
0 atoms in group flying
group   eq_run  union solvent ions flying
5201 atoms in group eq_run
            
######################################################################
pair_style   lj/cut/coul/long 2.500000 3.500000
kspace_style pppm 0.0001

# LJ (neq? False)
# real lj particles
pair_coeff  * *         1.  1.  2.5   # solvent + ions
pair_coeff  4*5 4*5     0   0   2.5   # wall atoms

        
pair_modify  tail no shift yes mix arithmetic # LB mixing rule
neigh_modify delay 2 every 1 check yes page 500000 one 50000
######################################################################
# shake is off; should be a dummy run
timestep 0.005000
thermo 2000
fix  eqmd   eq_run nvt temp 1.000000 1.000000 0.500000
run 0 # (neq? False) MD run
PPPM initialization ...
  using 12-bit tables for long-range coulomb (../kspace.cpp:340)
  G vector (1/distance) = 0.80638559
  grid = 36 36 36
  stencil order = 5
  estimated absolute RMS force accuracy = 8.1797113e-05
  estimated relative force accuracy = 8.1797113e-05
  using single precision KISS FFT
  3d grid and FFT values/proc = 4913 2592
Per MPI rank memory allocation (min/avg/max) = 5.425 | 5.447 | 5.489 Mbytes
Step Temp Atoms Density TotEng PotEng KinEng E_coul E_vdwl E_long Enthalpy Press 
   11200     0.983992     5201     0.749823 -15621.112379 -23296.251914  7675.139535   -67.709017 -22915.749607  -312.793290 -7974.429324     1.102415 
Loop time of 3.42707e-06 on 27 procs for 0 steps with 5201 atoms

84.3% CPU use with 27 MPI tasks x no OpenMP threads

MPI task timing breakdown:
Section |  min time  |  avg time  |  max time  |%varavg| %total
---------------------------------------------------------------
Pair    | 0          | 0          | 0          |   0.0 |  0.00
Kspace  | 0          | 0          | 0          |   0.0 |  0.00
Neigh   | 0          | 0          | 0          |   0.0 |  0.00
Comm    | 0          | 0          | 0          |   0.0 |  0.00
Output  | 0          | 0          | 0          |   0.0 |  0.00
Modify  | 0          | 0          | 0          |   0.0 |  0.00
Other   |            | 3.427e-06  |            |       |100.00

Nlocal:        192.630 ave         203 max         178 min
Histogram: 1 0 1 2 7 2 4 4 5 1
Nghost:        1847.59 ave        1879 max        1824 min
Histogram: 2 2 4 4 6 3 3 1 0 2
Neighs:        16468.7 ave       18077 max       14773 min
Histogram: 1 3 0 4 5 5 2 4 2 1

Total # of neighbors = 444654
Ave neighs/atom = 85.493943
Neighbor list builds = 0
Dangerous builds = 0
unfix    eqmd
# selected_velocity_lj 2176 lj-solvent vel 0.314598 0.972166 1.096871
group widom_test id  2176  # select_molecule
1 atoms in group widom_test
set atom 2176 type 6
Setting atom values ...
  1 settings made for type
run 0 post no # done selecting a flying molecule
PPPM initialization ...
  using 12-bit tables for long-range coulomb (../kspace.cpp:340)
  G vector (1/distance) = 0.80638559
  grid = 36 36 36
  stencil order = 5
  estimated absolute RMS force accuracy = 8.1797113e-05
  estimated relative force accuracy = 8.1797113e-05
  using single precision KISS FFT
  3d grid and FFT values/proc = 4913 2592
Per MPI rank memory allocation (min/avg/max) = 5.425 | 5.447 | 5.489 Mbytes
Step Temp Atoms Density TotEng PotEng KinEng E_coul E_vdwl E_long Enthalpy Press 
   11200     0.983992     5201     0.749823 -15621.112379 -23296.251914  7675.139535   -67.709017 -22915.749607  -312.793290 -7974.429324     1.102415 
Loop time of 2.89533e-06 on 27 procs for 0 steps with 5201 atoms

group noneq_run_rigid    intersect   all         water               # select_lj no selection
0 atoms in group noneq_run_rigid
group noneq_run          subtract    all         noneq_run_rigid     # select_lj no selection
5201 atoms in group noneq_run
run 0 post no # mom rev random number
PPPM initialization ...
  using 12-bit tables for long-range coulomb (../kspace.cpp:340)
  G vector (1/distance) = 0.80638559
  grid = 36 36 36
  stencil order = 5
  estimated absolute RMS force accuracy = 8.1797113e-05
  estimated relative force accuracy = 8.1797113e-05
  using single precision KISS FFT
  3d grid and FFT values/proc = 4913 2592
Per MPI rank memory allocation (min/avg/max) = 5.425 | 5.447 | 5.489 Mbytes
Step Temp Atoms Density TotEng PotEng KinEng E_coul E_vdwl E_long Enthalpy Press 
   11200     0.983992     5201     0.749823 -15621.112379 -23296.251914  7675.139535   -67.709017 -22915.749607  -312.793290 -7974.429324     1.102415 
Loop time of 3.47959e-06 on 27 procs for 0 steps with 5201 atoms

######################################################################
pair_style   lj/cut/coul/long/neq 2.500000 3.500000 11200 100 1.000000 5 0 0 1.000000 1.000000 11 1.000000
kspace_style pppm 0.0001

# LJ (neq? True)
# real lj particles
pair_coeff  * *         1.  1.  2.5   # solvent + ions
pair_coeff  4*5 4*5     0   0   2.5   # wall atoms

        
pair_modify  tail no shift yes mix arithmetic # LB mixing rule
neigh_modify delay 2 every 1 check yes page 500000 one 50000
######################################################################
timestep 0.010000
fix  eqmd  noneq_run           nve                 # nve for non-rigid
run 100 # (neq? True) MD run
PPPM initialization ...
  using 12-bit tables for long-range coulomb (../kspace.cpp:340)
  G vector (1/distance) = 0.80638559
  grid = 36 36 36
  stencil order = 5
  estimated absolute RMS force accuracy = 8.1797113e-05
  estimated relative force accuracy = 8.1797113e-05
  using single precision KISS FFT
  3d grid and FFT values/proc = 4913 2592
Neighbor list info ...
  update every 1 steps, delay 2 steps, check yes
  max neighbors/atom: 50000, page size: 500000
  master list distance cutoff = 3.8
  ghost atom cutoff = 3.8
  binsize = 1.9, bins = 11 11 11
  1 neighbor lists, perpetual/occasional/extra = 1 0 0
  (1) pair lj/cut/coul/long/neq, perpetual
      attributes: half, newton on
      pair build: half/bin/atomonly/newton
      stencil: half/bin/3d
      bin: standard
Per MPI rank memory allocation (min/avg/max) = 5.425 | 5.447 | 5.489 Mbytes
Step Temp Atoms Density TotEng PotEng KinEng E_coul E_vdwl E_long Enthalpy Press 
   11200     0.983992     5201     0.749823 -15621.112379 -23296.251914  7675.139535   -67.709017 -22915.749607  -312.793290 -7974.429324     1.102415 
   11300     0.992546     5201     0.749823 -15619.158799 -23361.020920  7741.862121   -64.481112 -22986.503570  -310.036238 -8673.556945     1.001340 
Loop time of 0.308661 on 27 procs for 100 steps with 5201 atoms

Performance: 279918.378 tau/day, 323.980 timesteps/s
92.9% CPU use with 27 MPI tasks x no OpenMP threads

MPI task timing breakdown:
Section |  min time  |  avg time  |  max time  |%varavg| %total
---------------------------------------------------------------
Pair    | 0.057751   | 0.093725   | 0.11429    |   5.3 | 30.37
Kspace  | 0.15452    | 0.17654    | 0.2141     |   4.0 | 57.19
Neigh   | 0.014419   | 0.020804   | 0.023815   |   1.9 |  6.74
Comm    | 0.013964   | 0.015593   | 0.020198   |   1.6 |  5.05
Output  | 5.3747e-05 | 6.0266e-05 | 8.3101e-05 |   0.0 |  0.02
Modify  | 0.00036513 | 0.00056688 | 0.00071554 |   0.0 |  0.18
Other   |            | 0.001376   |            |       |  0.45

Nlocal:        192.630 ave         201 max         185 min
Histogram: 4 1 2 6 1 4 3 1 3 2
Nghost:        1841.70 ave        1858 max        1819 min
Histogram: 1 0 3 2 5 3 5 2 2 4
Neighs:        16457.6 ave       17452 max       15407 min
Histogram: 6 1 0 0 3 3 6 4 3 1

Total # of neighbors = 444356
Ave neighs/atom = 85.436647
Neighbor list builds = 25
Dangerous builds = 0
unfix    eqmd

group   solvent type 1
5001 atoms in group solvent
group   water   empty
0 atoms in group water
group   ions    type 2 3
200 atoms in group ions
group   wall    type 4 5
0 atoms in group wall
group   flying  type 6 7 8
1 atoms in group flying
group   eq_run  union solvent ions flying
5201 atoms in group eq_run
            
######################################################################
pair_style   lj/cut/coul/long 2.500000 3.500000
kspace_style pppm 0.0001

# LJ (neq? False)
# real lj particles
pair_coeff  * *         1.  1.  2.5   # solvent + ions
pair_coeff  4*5 4*5     0   0   2.5   # wall atoms

        
pair_modify  tail no shift yes mix arithmetic # LB mixing rule
neigh_modify delay 2 every 1 check yes page 500000 one 50000
######################################################################
# dealing with ideal flying particles: force field=simple_lj

# Non-interacting flying lj molecule (trial deletion)
# real lj particles
pair_coeff  * *         1.  1.  2.5   # solvent + ions
pair_coeff  4*5 4*5     0   0   2.5   # wall atoms
# flying particles
pair_coeff  * 6         0   0   2.5   # flying solvent  non-interacting
pair_coeff  * 7         0   0   2.5   # flying cation   non-interacting
pair_coeff  * 8         0   0   2.5   # flying anion    non-interacting

# flying solvetn or ions
set type 6  charge 0.                       # non-interacting
Setting atom values ...
  1 settings made for charge
set type 7  charge 0.                       # non-interacting
Setting atom values ...
  0 settings made for charge
set type 8  charge 0.                       # non-interacting
Setting atom values ...
  0 settings made for charge
        
run 0 post no # making flying moelcule non-interacting
PPPM initialization ...
  using 12-bit tables for long-range coulomb (../kspace.cpp:340)
  G vector (1/distance) = 0.80638559
  grid = 36 36 36
  stencil order = 5
  estimated absolute RMS force accuracy = 8.1797113e-05
  estimated relative force accuracy = 8.1797113e-05
  using single precision KISS FFT
  3d grid and FFT values/proc = 4913 2592
Neighbor list info ...
  update every 1 steps, delay 2 steps, check yes
  max neighbors/atom: 50000, page size: 500000
  master list distance cutoff = 3.8
  ghost atom cutoff = 3.8
  binsize = 1.9, bins = 11 11 11
  1 neighbor lists, perpetual/occasional/extra = 1 0 0
  (1) pair lj/cut/coul/long, perpetual
      attributes: half, newton on
      pair build: half/bin/atomonly/newton
      stencil: half/bin/3d
      bin: standard
Per MPI rank memory allocation (min/avg/max) = 5.424 | 5.447 | 5.489 Mbytes
Step Temp Atoms Density TotEng PotEng KinEng E_coul E_vdwl E_long Enthalpy Press 
   11300     0.992546     5201     0.749823 -15614.475747 -23356.337869  7741.862121   -64.481112 -22981.820519  -310.036238 -8663.745715     1.002080 
Loop time of 2.64433e-06 on 27 procs for 0 steps with 5201 atoms

# done post_propagate after NEMD
set type 6 type 1
Setting atom values ...
  1 settings made for type
run 0 post no # lj type change (reject_delete)
PPPM initialization ...
  using 12-bit tables for long-range coulomb (../kspace.cpp:340)
  G vector (1/distance) = 0.80638559
  grid = 36 36 36
  stencil order = 5
  estimated absolute RMS force accuracy = 8.1797113e-05
  estimated relative force accuracy = 8.1797113e-05
  using single precision KISS FFT
  3d grid and FFT values/proc = 4913 2592
Per MPI rank memory allocation (min/avg/max) = 5.424 | 5.447 | 5.489 Mbytes
Step Temp Atoms Density TotEng PotEng KinEng E_coul E_vdwl E_long Enthalpy Press 
   11300     0.992546     5201     0.749823 -14298.934282 -22040.796403  7741.862121   -64.481112 -21666.279054  -310.036238 -1870.896243     1.791738 
Loop time of 2.66522e-06 on 27 procs for 0 steps with 5201 atoms

set atom 2176 charge 0.000000
Setting atom values ...
  1 settings made for charge
run 0 post no # charge return (reject_delete)
PPPM initialization ...
  using 12-bit tables for long-range coulomb (../kspace.cpp:340)
  G vector (1/distance) = 0.80638559
  grid = 36 36 36
  stencil order = 5
  estimated absolute RMS force accuracy = 8.1797113e-05
  estimated relative force accuracy = 8.1797113e-05
  using single precision KISS FFT
  3d grid and FFT values/proc = 4913 2592
Per MPI rank memory allocation (min/avg/max) = 5.424 | 5.447 | 5.489 Mbytes
Step Temp Atoms Density TotEng PotEng KinEng E_coul E_vdwl E_long Enthalpy Press 
   11300     0.992546     5201     0.749823 -14298.934282 -22040.796403  7741.862121   -64.481112 -21666.279054  -310.036238 -1870.896243     1.791738 
Loop time of 2.7397e-06 on 27 procs for 0 steps with 5201 atoms

run 0 post no # return_position back to old
PPPM initialization ...
  using 12-bit tables for long-range coulomb (../kspace.cpp:340)
  G vector (1/distance) = 0.80638559
  grid = 36 36 36
  stencil order = 5
  estimated absolute RMS force accuracy = 8.1797113e-05
  estimated relative force accuracy = 8.1797113e-05
  using single precision KISS FFT
  3d grid and FFT values/proc = 4913 2592
Per MPI rank memory allocation (min/avg/max) = 5.425 | 5.447 | 5.489 Mbytes
Step Temp Atoms Density TotEng PotEng KinEng E_coul E_vdwl E_long Enthalpy Press 
   11300     0.983992     5201     0.749823 -15621.112379 -23296.251914  7675.139535   -67.709017 -22915.749607  -312.793290 -7974.429324     1.102415 
Loop time of 2.71044e-06 on 27 procs for 0 steps with 5201 atoms

group widom_test         delete
group noneq_run          delete
group noneq_run_rigid    delete
reset_timestep 11200

group   solvent delete
group   water   delete
group   ions    delete
group   wall    delete
group   flying  delete
group   eq_run  delete
        

group   solvent type 1
5001 atoms in group solvent
group   water   empty
0 atoms in group water
group   ions    type 2 3
200 atoms in group ions
group   wall    type 4 5
0 atoms in group wall
group   flying  type 6 7 8
0 atoms in group flying
group   eq_run  union solvent ions flying
5201 atoms in group eq_run
            
######################################################################
pair_style   lj/cut/coul/long 2.500000 3.500000
kspace_style pppm 0.0001

# LJ (neq? False)
# real lj particles
pair_coeff  * *         1.  1.  2.5   # solvent + ions
pair_coeff  4*5 4*5     0   0   2.5   # wall atoms

        
pair_modify  tail no shift yes mix arithmetic # LB mixing rule
neigh_modify delay 2 every 1 check yes page 500000 one 50000
######################################################################
# shake is off; should be a dummy run
timestep 0.005000
thermo 2000
fix  eqmd   eq_run nvt temp 1.000000 1.000000 0.500000
run 0 # (neq? False) MD run
PPPM initialization ...
  using 12-bit tables for long-range coulomb (../kspace.cpp:340)
  G vector (1/distance) = 0.80638559
  grid = 36 36 36
  stencil order = 5
  estimated absolute RMS force accuracy = 8.1797113e-05
  estimated relative force accuracy = 8.1797113e-05
  using single precision KISS FFT
  3d grid and FFT values/proc = 4913 2592
Per MPI rank memory allocation (min/avg/max) = 5.425 | 5.447 | 5.489 Mbytes
Step Temp Atoms Density TotEng PotEng KinEng E_coul E_vdwl E_long Enthalpy Press 
   11200     0.983992     5201     0.749823 -15621.112379 -23296.251914  7675.139535   -67.709017 -22915.749607  -312.793290 -7974.429324     1.102415 
Loop time of 3.37663e-06 on 27 procs for 0 steps with 5201 atoms

120.7% CPU use with 27 MPI tasks x no OpenMP threads

MPI task timing breakdown:
Section |  min time  |  avg time  |  max time  |%varavg| %total
---------------------------------------------------------------
Pair    | 0          | 0          | 0          |   0.0 |  0.00
Kspace  | 0          | 0          | 0          |   0.0 |  0.00
Neigh   | 0          | 0          | 0          |   0.0 |  0.00
Comm    | 0          | 0          | 0          |   0.0 |  0.00
Output  | 0          | 0          | 0          |   0.0 |  0.00
Modify  | 0          | 0          | 0          |   0.0 |  0.00
Other   |            | 3.377e-06  |            |       |100.00

Nlocal:        192.630 ave         203 max         178 min
Histogram: 1 0 1 2 7 2 4 4 5 1
Nghost:        1847.59 ave        1879 max        1824 min
Histogram: 2 2 4 4 6 3 3 1 0 2
Neighs:        16468.7 ave       18077 max       14773 min
Histogram: 1 3 0 4 5 5 2 4 2 1

Total # of neighbors = 444654
Ave neighs/atom = 85.493943
Neighbor list builds = 0
Dangerous builds = 0
unfix    eqmd
# selected_velocity_lj 421 lj-solvent vel 0.496144 -1.255842 -0.248862
group widom_test id  421  # select_molecule
1 atoms in group widom_test
set atom 421 type 6
Setting atom values ...
  1 settings made for type
run 0 post no # done selecting a flying molecule
PPPM initialization ...
  using 12-bit tables for long-range coulomb (../kspace.cpp:340)
  G vector (1/distance) = 0.80638559
  grid = 36 36 36
  stencil order = 5
  estimated absolute RMS force accuracy = 8.1797113e-05
  estimated relative force accuracy = 8.1797113e-05
  using single precision KISS FFT
  3d grid and FFT values/proc = 4913 2592
Per MPI rank memory allocation (min/avg/max) = 5.425 | 5.447 | 5.489 Mbytes
Step Temp Atoms Density TotEng PotEng KinEng E_coul E_vdwl E_long Enthalpy Press 
   11200     0.983992     5201     0.749823 -15621.112379 -23296.251914  7675.139535   -67.709017 -22915.749607  -312.793290 -7974.429324     1.102415 
Loop time of 3.35537e-06 on 27 procs for 0 steps with 5201 atoms

group noneq_run_rigid    intersect   all         water               # select_lj no selection
0 atoms in group noneq_run_rigid
group noneq_run          subtract    all         noneq_run_rigid     # select_lj no selection
5201 atoms in group noneq_run
run 0 post no # mom rev random number
PPPM initialization ...
  using 12-bit tables for long-range coulomb (../kspace.cpp:340)
  G vector (1/distance) = 0.80638559
  grid = 36 36 36
  stencil order = 5
  estimated absolute RMS force accuracy = 8.1797113e-05
  estimated relative force accuracy = 8.1797113e-05
  using single precision KISS FFT
  3d grid and FFT values/proc = 4913 2592
Per MPI rank memory allocation (min/avg/max) = 5.425 | 5.447 | 5.489 Mbytes
Step Temp Atoms Density TotEng PotEng KinEng E_coul E_vdwl E_long Enthalpy Press 
   11200     0.983992     5201     0.749823 -15621.112379 -23296.251914  7675.139535   -67.709017 -22915.749607  -312.793290 -7974.429324     1.102415 
Loop time of 3.03093e-06 on 27 procs for 0 steps with 5201 atoms

######################################################################
pair_style   lj/cut/coul/long/neq 2.500000 3.500000 11200 100 1.000000 5 0 0 1.000000 1.000000 11 1.000000
kspace_style pppm 0.0001

# LJ (neq? True)
# real lj particles
pair_coeff  * *         1.  1.  2.5   # solvent + ions
pair_coeff  4*5 4*5     0   0   2.5   # wall atoms

        
pair_modify  tail no shift yes mix arithmetic # LB mixing rule
neigh_modify delay 2 every 1 check yes page 500000 one 50000
######################################################################
timestep 0.010000
fix  eqmd  noneq_run           nve                 # nve for non-rigid
run 100 # (neq? True) MD run
PPPM initialization ...
  using 12-bit tables for long-range coulomb (../kspace.cpp:340)
  G vector (1/distance) = 0.80638559
  grid = 36 36 36
  stencil order = 5
  estimated absolute RMS force accuracy = 8.1797113e-05
  estimated relative force accuracy = 8.1797113e-05
  using single precision KISS FFT
  3d grid and FFT values/proc = 4913 2592
Neighbor list info ...
  update every 1 steps, delay 2 steps, check yes
  max neighbors/atom: 50000, page size: 500000
  master list distance cutoff = 3.8
  ghost atom cutoff = 3.8
  binsize = 1.9, bins = 11 11 11
  1 neighbor lists, perpetual/occasional/extra = 1 0 0
  (1) pair lj/cut/coul/long/neq, perpetual
      attributes: half, newton on
      pair build: half/bin/atomonly/newton
      stencil: half/bin/3d
      bin: standard
Per MPI rank memory allocation (min/avg/max) = 5.425 | 5.447 | 5.489 Mbytes
Step Temp Atoms Density TotEng PotEng KinEng E_coul E_vdwl E_long Enthalpy Press 
   11200     0.983992     5201     0.749823 -15621.112379 -23296.251914  7675.139535   -67.709017 -22915.749607  -312.793290 -7974.429324     1.102415 
   11300     0.993298     5201     0.749823 -15614.811112 -23362.537311  7747.726199   -64.805162 -22988.438898  -309.293251 -8716.666481     0.994499 
Loop time of 0.307547 on 27 procs for 100 steps with 5201 atoms

Performance: 280932.513 tau/day, 325.153 timesteps/s
93.3% CPU use with 27 MPI tasks x no OpenMP threads

MPI task timing breakdown:
Section |  min time  |  avg time  |  max time  |%varavg| %total
---------------------------------------------------------------
Pair    | 0.059128   | 0.094032   | 0.11368    |   5.2 | 30.57
Kspace  | 0.15455    | 0.17514    | 0.2116     |   4.0 | 56.95
Neigh   | 0.014667   | 0.02075    | 0.023443   |   1.9 |  6.75
Comm    | 0.013909   | 0.015615   | 0.019938   |   1.6 |  5.08
Output  | 5.3299e-05 | 5.9861e-05 | 8.6324e-05 |   0.0 |  0.02
Modify  | 0.00041702 | 0.00059421 | 0.0007415  |   0.0 |  0.19
Other   |            | 0.00136    |            |       |  0.44

Nlocal:        192.630 ave         201 max         185 min
Histogram: 3 2 2 6 1 5 1 2 3 2
Nghost:        1842.48 ave        1863 max        1821 min
Histogram: 1 1 3 3 5 6 3 2 0 3
Neighs:        16460.2 ave       17547 max       15399 min
Histogram: 5 2 0 1 3 4 5 4 2 1

Total # of neighbors = 444426
Ave neighs/atom = 85.450106
Neighbor list builds = 25
Dangerous builds = 0
unfix    eqmd

group   solvent type 1
5001 atoms in group solvent
group   water   empty
0 atoms in group water
group   ions    type 2 3
200 atoms in group ions
group   wall    type 4 5
0 atoms in group wall
group   flying  type 6 7 8
1 atoms in group flying
group   eq_run  union solvent ions flying
5201 atoms in group eq_run
            
######################################################################
pair_style   lj/cut/coul/long 2.500000 3.500000
kspace_style pppm 0.0001

# LJ (neq? False)
# real lj particles
pair_coeff  * *         1.  1.  2.5   # solvent + ions
pair_coeff  4*5 4*5     0   0   2.5   # wall atoms

        
pair_modify  tail no shift yes mix arithmetic # LB mixing rule
neigh_modify delay 2 every 1 check yes page 500000 one 50000
######################################################################
# dealing with ideal flying particles: force field=simple_lj

# Non-interacting flying lj molecule (trial deletion)
# real lj particles
pair_coeff  * *         1.  1.  2.5   # solvent + ions
pair_coeff  4*5 4*5     0   0   2.5   # wall atoms
# flying particles
pair_coeff  * 6         0   0   2.5   # flying solvent  non-interacting
pair_coeff  * 7         0   0   2.5   # flying cation   non-interacting
pair_coeff  * 8         0   0   2.5   # flying anion    non-interacting

# flying solvetn or ions
set type 6  charge 0.                       # non-interacting
Setting atom values ...
  1 settings made for charge
set type 7  charge 0.                       # non-interacting
Setting atom values ...
  0 settings made for charge
set type 8  charge 0.                       # non-interacting
Setting atom values ...
  0 settings made for charge
        
run 0 post no # making flying moelcule non-interacting
PPPM initialization ...
  using 12-bit tables for long-range coulomb (../kspace.cpp:340)
  G vector (1/distance) = 0.80638559
  grid = 36 36 36
  stencil order = 5
  estimated absolute RMS force accuracy = 8.1797113e-05
  estimated relative force accuracy = 8.1797113e-05
  using single precision KISS FFT
  3d grid and FFT values/proc = 4913 2592
Neighbor list info ...
  update every 1 steps, delay 2 steps, check yes
  max neighbors/atom: 50000, page size: 500000
  master list distance cutoff = 3.8
  ghost atom cutoff = 3.8
  binsize = 1.9, bins = 11 11 11
  1 neighbor lists, perpetual/occasional/extra = 1 0 0
  (1) pair lj/cut/coul/long, perpetual
      attributes: half, newton on
      pair build: half/bin/atomonly/newton
      stencil: half/bin/3d
      bin: standard
Per MPI rank memory allocation (min/avg/max) = 5.424 | 5.447 | 5.489 Mbytes
Step Temp Atoms Density TotEng PotEng KinEng E_coul E_vdwl E_long Enthalpy Press 
   11300     0.993298     5201     0.749823 -15610.441962 -23358.168160  7747.726199   -64.805162 -22984.069747  -309.293252 -8707.607433     0.995175 
Loop time of 2.90326e-06 on 27 procs for 0 steps with 5201 atoms

# done post_propagate after NEMD
set type 6 type 1
Setting atom values ...
  1 settings made for type
run 0 post no # lj type change (reject_delete)
PPPM initialization ...
  using 12-bit tables for long-range coulomb (../kspace.cpp:340)
  G vector (1/distance) = 0.80638559
  grid = 36 36 36
  stencil order = 5
  estimated absolute RMS force accuracy = 8.1797113e-05
  estimated relative force accuracy = 8.1797113e-05
  using single precision KISS FFT
  3d grid and FFT values/proc = 4913 2592
Per MPI rank memory allocation (min/avg/max) = 5.424 | 5.447 | 5.489 Mbytes
Step Temp Atoms Density TotEng PotEng KinEng E_coul E_vdwl E_long Enthalpy Press 
   11300     0.993298     5201     0.749823 -12935.754253 -20683.480451  7747.726199   -64.805162 -20309.382038  -309.293252  4943.925663     2.577695 
Loop time of 2.85481e-06 on 27 procs for 0 steps with 5201 atoms

set atom 421 charge 0.000000
Setting atom values ...
  1 settings made for charge
run 0 post no # charge return (reject_delete)
PPPM initialization ...
  using 12-bit tables for long-range coulomb (../kspace.cpp:340)
  G vector (1/distance) = 0.80638559
  grid = 36 36 36
  stencil order = 5
  estimated absolute RMS force accuracy = 8.1797113e-05
  estimated relative force accuracy = 8.1797113e-05
  using single precision KISS FFT
  3d grid and FFT values/proc = 4913 2592
Per MPI rank memory allocation (min/avg/max) = 5.424 | 5.447 | 5.489 Mbytes
Step Temp Atoms Density TotEng PotEng KinEng E_coul E_vdwl E_long Enthalpy Press 
   11300     0.993298     5201     0.749823 -12935.754253 -20683.480451  7747.726199   -64.805162 -20309.382038  -309.293252  4943.925663     2.577695 
Loop time of 2.6817e-06 on 27 procs for 0 steps with 5201 atoms

run 0 post no # return_position back to old
PPPM initialization ...
  using 12-bit tables for long-range coulomb (../kspace.cpp:340)
  G vector (1/distance) = 0.80638559
  grid = 36 36 36
  stencil order = 5
  estimated absolute RMS force accuracy = 8.1797113e-05
  estimated relative force accuracy = 8.1797113e-05
  using single precision KISS FFT
  3d grid and FFT values/proc = 4913 2592
Per MPI rank memory allocation (min/avg/max) = 5.425 | 5.447 | 5.489 Mbytes
Step Temp Atoms Density TotEng PotEng KinEng E_coul E_vdwl E_long Enthalpy Press 
   11300     0.983992     5201     0.749823 -15621.112379 -23296.251914  7675.139535   -67.709017 -22915.749607  -312.793290 -7974.429324     1.102415 
Loop time of 2.73919e-06 on 27 procs for 0 steps with 5201 atoms

group widom_test         delete
group noneq_run          delete
group noneq_run_rigid    delete
reset_timestep 11200

group   solvent delete
group   water   delete
group   ions    delete
group   wall    delete
group   flying  delete
group   eq_run  delete
        

group   solvent type 1
5001 atoms in group solvent
group   water   empty
0 atoms in group water
group   ions    type 2 3
200 atoms in group ions
group   wall    type 4 5
0 atoms in group wall
group   flying  type 6 7 8
0 atoms in group flying
group   eq_run  union solvent ions flying
5201 atoms in group eq_run
            
######################################################################
pair_style   lj/cut/coul/long 2.500000 3.500000
kspace_style pppm 0.0001

# LJ (neq? False)
# real lj particles
pair_coeff  * *         1.  1.  2.5   # solvent + ions
pair_coeff  4*5 4*5     0   0   2.5   # wall atoms

        
pair_modify  tail no shift yes mix arithmetic # LB mixing rule
neigh_modify delay 2 every 1 check yes page 500000 one 50000
######################################################################
# shake is off; should be a dummy run
timestep 0.005000
thermo 2000
fix  eqmd   eq_run nvt temp 1.000000 1.000000 0.500000
run 0 # (neq? False) MD run
PPPM initialization ...
  using 12-bit tables for long-range coulomb (../kspace.cpp:340)
  G vector (1/distance) = 0.80638559
  grid = 36 36 36
  stencil order = 5
  estimated absolute RMS force accuracy = 8.1797113e-05
  estimated relative force accuracy = 8.1797113e-05
  using single precision KISS FFT
  3d grid and FFT values/proc = 4913 2592
Per MPI rank memory allocation (min/avg/max) = 5.425 | 5.447 | 5.489 Mbytes
Step Temp Atoms Density TotEng PotEng KinEng E_coul E_vdwl E_long Enthalpy Press 
   11200     0.983992     5201     0.749823 -15621.112379 -23296.251914  7675.139535   -67.709017 -22915.749607  -312.793290 -7974.429324     1.102415 
Loop time of 3.04474e-06 on 27 procs for 0 steps with 5201 atoms

118.0% CPU use with 27 MPI tasks x no OpenMP threads

MPI task timing breakdown:
Section |  min time  |  avg time  |  max time  |%varavg| %total
---------------------------------------------------------------
Pair    | 0          | 0          | 0          |   0.0 |  0.00
Kspace  | 0          | 0          | 0          |   0.0 |  0.00
Neigh   | 0          | 0          | 0          |   0.0 |  0.00
Comm    | 0          | 0          | 0          |   0.0 |  0.00
Output  | 0          | 0          | 0          |   0.0 |  0.00
Modify  | 0          | 0          | 0          |   0.0 |  0.00
Other   |            | 3.045e-06  |            |       |100.00

Nlocal:        192.630 ave         203 max         178 min
Histogram: 1 0 1 2 7 2 4 4 5 1
Nghost:        1847.59 ave        1879 max        1824 min
Histogram: 2 2 4 4 6 3 3 1 0 2
Neighs:        16468.7 ave       18077 max       14773 min
Histogram: 1 3 0 4 5 5 2 4 2 1

Total # of neighbors = 444654
Ave neighs/atom = 85.493943
Neighbor list builds = 0
Dangerous builds = 0
unfix    eqmd
# selected_velocity_lj 3229 lj-solvent vel 0.093998 -1.303141 -0.191725
group widom_test id  3229  # select_molecule
1 atoms in group widom_test
set atom 3229 type 6
Setting atom values ...
  1 settings made for type
run 0 post no # done selecting a flying molecule
PPPM initialization ...
  using 12-bit tables for long-range coulomb (../kspace.cpp:340)
  G vector (1/distance) = 0.80638559
  grid = 36 36 36
  stencil order = 5
  estimated absolute RMS force accuracy = 8.1797113e-05
  estimated relative force accuracy = 8.1797113e-05
  using single precision KISS FFT
  3d grid and FFT values/proc = 4913 2592
Per MPI rank memory allocation (min/avg/max) = 5.425 | 5.447 | 5.489 Mbytes
Step Temp Atoms Density TotEng PotEng KinEng E_coul E_vdwl E_long Enthalpy Press 
   11200     0.983992     5201     0.749823 -15621.112379 -23296.251914  7675.139535   -67.709017 -22915.749607  -312.793290 -7974.429324     1.102415 
Loop time of 3.36589e-06 on 27 procs for 0 steps with 5201 atoms

group noneq_run_rigid    intersect   all         water               # select_lj no selection
0 atoms in group noneq_run_rigid
group noneq_run          subtract    all         noneq_run_rigid     # select_lj no selection
5201 atoms in group noneq_run
run 0 post no # mom rev random number
PPPM initialization ...
  using 12-bit tables for long-range coulomb (../kspace.cpp:340)
  G vector (1/distance) = 0.80638559
  grid = 36 36 36
  stencil order = 5
  estimated absolute RMS force accuracy = 8.1797113e-05
  estimated relative force accuracy = 8.1797113e-05
  using single precision KISS FFT
  3d grid and FFT values/proc = 4913 2592
Per MPI rank memory allocation (min/avg/max) = 5.425 | 5.447 | 5.489 Mbytes
Step Temp Atoms Density TotEng PotEng KinEng E_coul E_vdwl E_long Enthalpy Press 
   11200     0.983992     5201     0.749823 -15621.112379 -23296.251914  7675.139535   -67.709017 -22915.749607  -312.793290 -7974.429324     1.102415 
Loop time of 3.13878e-06 on 27 procs for 0 steps with 5201 atoms

######################################################################
pair_style   lj/cut/coul/long/neq 2.500000 3.500000 11200 100 1.000000 5 0 0 1.000000 1.000000 11 1.000000
kspace_style pppm 0.0001

# LJ (neq? True)
# real lj particles
pair_coeff  * *         1.  1.  2.5   # solvent + ions
pair_coeff  4*5 4*5     0   0   2.5   # wall atoms

        
pair_modify  tail no shift yes mix arithmetic # LB mixing rule
neigh_modify delay 2 every 1 check yes page 500000 one 50000
######################################################################
timestep 0.010000
fix  eqmd  noneq_run           nve                 # nve for non-rigid
run 100 # (neq? True) MD run
PPPM initialization ...
  using 12-bit tables for long-range coulomb (../kspace.cpp:340)
  G vector (1/distance) = 0.80638559
  grid = 36 36 36
  stencil order = 5
  estimated absolute RMS force accuracy = 8.1797113e-05
  estimated relative force accuracy = 8.1797113e-05
  using single precision KISS FFT
  3d grid and FFT values/proc = 4913 2592
Neighbor list info ...
  update every 1 steps, delay 2 steps, check yes
  max neighbors/atom: 50000, page size: 500000
  master list distance cutoff = 3.8
  ghost atom cutoff = 3.8
  binsize = 1.9, bins = 11 11 11
  1 neighbor lists, perpetual/occasional/extra = 1 0 0
  (1) pair lj/cut/coul/long/neq, perpetual
      attributes: half, newton on
      pair build: half/bin/atomonly/newton
      stencil: half/bin/3d
      bin: standard
Per MPI rank memory allocation (min/avg/max) = 5.425 | 5.447 | 5.489 Mbytes
Step Temp Atoms Density TotEng PotEng KinEng E_coul E_vdwl E_long Enthalpy Press 
   11200     0.983992     5201     0.749823 -15621.112379 -23296.251914  7675.139535   -67.709017 -22915.749607  -312.793290 -7974.429324     1.102415 
   11300     0.993437     5201     0.749823 -15619.018091 -23367.822985  7748.804894   -64.376448 -22994.440081  -309.006456 -8753.690095     0.989767 
Loop time of 0.307253 on 27 procs for 100 steps with 5201 atoms

Performance: 281201.222 tau/day, 325.464 timesteps/s
92.3% CPU use with 27 MPI tasks x no OpenMP threads

MPI task timing breakdown:
Section |  min time  |  avg time  |  max time  |%varavg| %total
---------------------------------------------------------------
Pair    | 0.058201   | 0.093774   | 0.11508    |   5.2 | 30.52
Kspace  | 0.15296    | 0.17539    | 0.21209    |   3.9 | 57.08
Neigh   | 0.014428   | 0.020632   | 0.02351    |   1.9 |  6.71
Comm    | 0.013704   | 0.015431   | 0.020182   |   1.6 |  5.02
Output  | 5.3934e-05 | 6.0146e-05 | 8.3394e-05 |   0.0 |  0.02
Modify  | 0.00039557 | 0.00058603 | 0.0007549  |   0.0 |  0.19
Other   |            | 0.00138    |            |       |  0.45

Nlocal:        192.630 ave         201 max         185 min
Histogram: 3 1 3 6 3 3 0 2 4 2
Nghost:        1842.81 ave        1860 max        1823 min
Histogram: 1 0 5 4 1 4 5 4 1 2
Neighs:        16460.0 ave       17555 max       15393 min
Histogram: 4 2 1 1 4 4 5 3 2 1

Total # of neighbors = 444421
Ave neighs/atom = 85.449144
Neighbor list builds = 25
Dangerous builds = 0
unfix    eqmd

group   solvent type 1
5001 atoms in group solvent
group   water   empty
0 atoms in group water
group   ions    type 2 3
200 atoms in group ions
group   wall    type 4 5
0 atoms in group wall
group   flying  type 6 7 8
1 atoms in group flying
group   eq_run  union solvent ions flying
5201 atoms in group eq_run
            
######################################################################
pair_style   lj/cut/coul/long 2.500000 3.500000
kspace_style pppm 0.0001

# LJ (neq? False)
# real lj particles
pair_coeff  * *         1.  1.  2.5   # solvent + ions
pair_coeff  4*5 4*5     0   0   2.5   # wall atoms

        
pair_modify  tail no shift yes mix arithmetic # LB mixing rule
neigh_modify delay 2 every 1 check yes page 500000 one 50000
######################################################################
# dealing with ideal flying particles: force field=simple_lj

# Non-interacting flying lj molecule (trial deletion)
# real lj particles
pair_coeff  * *         1.  1.  2.5   # solvent + ions
pair_coeff  4*5 4*5     0   0   2.5   # wall atoms
# flying particles
pair_coeff  * 6         0   0   2.5   # flying solvent  non-interacting
pair_coeff  * 7         0   0   2.5   # flying cation   non-interacting
pair_coeff  * 8         0   0   2.5   # flying anion    non-interacting

# flying solvetn or ions
set type 6  charge 0.                       # non-interacting
Setting atom values ...
  1 settings made for charge
set type 7  charge 0.                       # non-interacting
Setting atom values ...
  0 settings made for charge
set type 8  charge 0.                       # non-interacting
Setting atom values ...
  0 settings made for charge
        
run 0 post no # making flying moelcule non-interacting
PPPM initialization ...
  using 12-bit tables for long-range coulomb (../kspace.cpp:340)
  G vector (1/distance) = 0.80638559
  grid = 36 36 36
  stencil order = 5
  estimated absolute RMS force accuracy = 8.1797113e-05
  estimated relative force accuracy = 8.1797113e-05
[...]
Pair    | 0.05763    | 0.094004   | 0.11131    |   5.1 | 30.82
Kspace  | 0.1543     | 0.17267    | 0.21029    |   3.9 | 56.61
Neigh   | 0.014594   | 0.02081    | 0.023378   |   1.9 |  6.82
Comm    | 0.013844   | 0.015456   | 0.019764   |   1.5 |  5.07
Output  | 5.5018e-05 | 6.176e-05  | 8.8701e-05 |   0.0 |  0.02
Modify  | 0.000419   | 0.00059335 | 0.0008244  |   0.0 |  0.19
Other   |            | 0.001404   |            |       |  0.46

Nlocal:        192.630 ave         201 max         184 min
Histogram: 2 2 2 2 6 5 0 3 3 2
Nghost:        1843.04 ave        1861 max        1821 min
Histogram: 1 0 3 5 2 3 6 2 3 2
Neighs:        16461.6 ave       17559 max       15275 min
Histogram: 4 2 1 1 2 3 6 4 3 1

Total # of neighbors = 444463
Ave neighs/atom = 85.457220
Neighbor list builds = 25
Dangerous builds = 0
unfix    eqmd

group   solvent type 1
5001 atoms in group solvent
group   water   empty
0 atoms in group water
group   ions    type 2 3
200 atoms in group ions
group   wall    type 4 5
0 atoms in group wall
group   flying  type 6 7 8
1 atoms in group flying
group   eq_run  union solvent ions flying
5201 atoms in group eq_run
            
######################################################################
pair_style   lj/cut/coul/long 2.500000 3.500000
kspace_style pppm 0.0001

# LJ (neq? False)
# real lj particles
pair_coeff  * *         1.  1.  2.5   # solvent + ions
pair_coeff  4*5 4*5     0   0   2.5   # wall atoms

        
pair_modify  tail no shift yes mix arithmetic # LB mixing rule
neigh_modify delay 2 every 1 check yes page 500000 one 50000
######################################################################
# dealing with ideal flying particles: force field=simple_lj

# Non-interacting flying lj molecule (trial deletion)
# real lj particles
pair_coeff  * *         1.  1.  2.5   # solvent + ions
pair_coeff  4*5 4*5     0   0   2.5   # wall atoms
# flying particles
pair_coeff  * 6         0   0   2.5   # flying solvent  non-interacting
pair_coeff  * 7         0   0   2.5   # flying cation   non-interacting
pair_coeff  * 8         0   0   2.5   # flying anion    non-interacting

# flying solvetn or ions
set type 6  charge 0.                       # non-interacting
Setting atom values ...
  1 settings made for charge
set type 7  charge 0.                       # non-interacting
Setting atom values ...
  0 settings made for charge
set type 8  charge 0.                       # non-interacting
Setting atom values ...
  0 settings made for charge
        
run 0 post no # making flying moelcule non-interacting
PPPM initialization ...
  using 12-bit tables for long-range coulomb (../kspace.cpp:340)
  G vector (1/distance) = 0.80638559
  grid = 36 36 36
  stencil order = 5
  estimated absolute RMS force accuracy = 8.1797113e-05
  estimated relative force accuracy = 8.1797113e-05
  using single precision KISS FFT
  3d grid and FFT values/proc = 4913 2592
Neighbor list info ...
  update every 1 steps, delay 2 steps, check yes
  max neighbors/atom: 50000, page size: 500000
  master list distance cutoff = 3.8
  ghost atom cutoff = 3.8
  binsize = 1.9, bins = 11 11 11
  1 neighbor lists, perpetual/occasional/extra = 1 0 0
  (1) pair lj/cut/coul/long, perpetual
      attributes: half, newton on
      pair build: half/bin/atomonly/newton
      stencil: half/bin/3d
      bin: standard
Per MPI rank memory allocation (min/avg/max) = 5.424 | 5.447 | 5.489 Mbytes
Step Temp Atoms Density TotEng PotEng KinEng E_coul E_vdwl E_long Enthalpy Press 
   11300     0.993707     5201     0.749823 -15613.757035 -23364.674253  7750.917218   -64.363621 -22991.115331  -309.195301 -8758.124038     0.988370 
Loop time of 3.062e-06 on 27 procs for 0 steps with 5201 atoms

# done post_propagate after NEMD
set type 6 type 1
Setting atom values ...
  1 settings made for type
run 0 post no # lj type change (reject_delete)
PPPM initialization ...
  using 12-bit tables for long-range coulomb (../kspace.cpp:340)
  G vector (1/distance) = 0.80638559
  grid = 36 36 36
  stencil order = 5
  estimated absolute RMS force accuracy = 8.1797113e-05
  estimated relative force accuracy = 8.1797113e-05
  using single precision KISS FFT
  3d grid and FFT values/proc = 4913 2592
Per MPI rank memory allocation (min/avg/max) = 5.424 | 5.447 | 5.489 Mbytes
Step Temp Atoms Density TotEng PotEng KinEng E_coul E_vdwl E_long Enthalpy Press 
   11300     0.993707     5201     0.749823 -14785.076092 -22535.993310  7750.917218   -64.363621 -22162.434389  -309.195301 -4424.153144     1.493724 
Loop time of 2.80852e-06 on 27 procs for 0 steps with 5201 atoms

set atom 2672 charge 0.000000
Setting atom values ...
  1 settings made for charge
run 0 post no # charge return (reject_delete)
PPPM initialization ...
  using 12-bit tables for long-range coulomb (../kspace.cpp:340)
  G vector (1/distance) = 0.80638559
  grid = 36 36 36
  stencil order = 5
  estimated absolute RMS force accuracy = 8.1797113e-05
  estimated relative force accuracy = 8.1797113e-05
  using single precision KISS FFT
  3d grid and FFT values/proc = 4913 2592
Per MPI rank memory allocation (min/avg/max) = 5.424 | 5.447 | 5.489 Mbytes
Step Temp Atoms Density TotEng PotEng KinEng E_coul E_vdwl E_long Enthalpy Press 
   11300     0.993707     5201     0.749823 -14785.076092 -22535.993310  7750.917218   -64.363621 -22162.434389  -309.195301 -4424.153144     1.493724 
Loop time of 2.56393e-06 on 27 procs for 0 steps with 5201 atoms

run 0 post no # return_position back to old
PPPM initialization ...
  using 12-bit tables for long-range coulomb (../kspace.cpp:340)
  G vector (1/distance) = 0.80638559
  grid = 36 36 36
  stencil order = 5
  estimated absolute RMS force accuracy = 8.1797113e-05
  estimated relative force accuracy = 8.1797113e-05
  using single precision KISS FFT
  3d grid and FFT values/proc = 4913 2592
Per MPI rank memory allocation (min/avg/max) = 5.425 | 5.447 | 5.489 Mbytes
Step Temp Atoms Density TotEng PotEng KinEng E_coul E_vdwl E_long Enthalpy Press 
   11300     0.983992     5201     0.749823 -15621.112379 -23296.251914  7675.139535   -67.709017 -22915.749607  -312.793290 -7974.429324     1.102415 
Loop time of 2.7227e-06 on 27 procs for 0 steps with 5201 atoms

group widom_test         delete
group noneq_run          delete
group noneq_run_rigid    delete
reset_timestep 11200

group   solvent delete
group   water   delete
group   ions    delete
group   wall    delete
group   flying  delete
group   eq_run  delete
        

group   solvent type 1
5001 atoms in group solvent
group   water   empty
0 atoms in group water
group   ions    type 2 3
200 atoms in group ions
group   wall    type 4 5
0 atoms in group wall
group   flying  type 6 7 8
0 atoms in group flying
group   eq_run  union solvent ions flying
5201 atoms in group eq_run
            
######################################################################
pair_style   lj/cut/coul/long 2.500000 3.500000
kspace_style pppm 0.0001

# LJ (neq? False)
# real lj particles
pair_coeff  * *         1.  1.  2.5   # solvent + ions
pair_coeff  4*5 4*5     0   0   2.5   # wall atoms

        
pair_modify  tail no shift yes mix arithmetic # LB mixing rule
neigh_modify delay 2 every 1 check yes page 500000 one 50000
######################################################################
# shake is off; should be a dummy run
timestep 0.005000
thermo 2000
fix  eqmd   eq_run nvt temp 1.000000 1.000000 0.500000
run 0 # (neq? False) MD run
PPPM initialization ...
  using 12-bit tables for long-range coulomb (../kspace.cpp:340)
  G vector (1/distance) = 0.80638559
  grid = 36 36 36
  stencil order = 5
  estimated absolute RMS force accuracy = 8.1797113e-05
  estimated relative force accuracy = 8.1797113e-05
  using single precision KISS FFT
  3d grid and FFT values/proc = 4913 2592
Per MPI rank memory allocation (min/avg/max) = 5.425 | 5.447 | 5.489 Mbytes
Step Temp Atoms Density TotEng PotEng KinEng E_coul E_vdwl E_long Enthalpy Press 
   11200     0.983992     5201     0.749823 -15621.112379 -23296.251914  7675.139535   -67.709017 -22915.749607  -312.793290 -7974.429324     1.102415 
Loop time of 2.58589e-06 on 27 procs for 0 steps with 5201 atoms

0.0% CPU use with 27 MPI tasks x no OpenMP threads

MPI task timing breakdown:
Section |  min time  |  avg time  |  max time  |%varavg| %total
---------------------------------------------------------------
Pair    | 0          | 0          | 0          |   0.0 |  0.00
Kspace  | 0          | 0          | 0          |   0.0 |  0.00
Neigh   | 0          | 0          | 0          |   0.0 |  0.00
Comm    | 0          | 0          | 0          |   0.0 |  0.00
Output  | 0          | 0          | 0          |   0.0 |  0.00
Modify  | 0          | 0          | 0          |   0.0 |  0.00
Other   |            | 2.586e-06  |            |       |100.00

Nlocal:        192.630 ave         203 max         178 min
Histogram: 1 0 1 2 7 2 4 4 5 1
Nghost:        1847.59 ave        1879 max        1824 min
Histogram: 2 2 4 4 6 3 3 1 0 2
Neighs:        16468.7 ave       18077 max       14773 min
Histogram: 1 3 0 4 5 5 2 4 2 1

Total # of neighbors = 444654
Ave neighs/atom = 85.493943
Neighbor list builds = 0
Dangerous builds = 0
unfix    eqmd
# selected_velocity_lj 539 lj-solvent vel -2.101872 0.525277 -0.376697
group widom_test id  539  # select_molecule
1 atoms in group widom_test
set atom 539 type 6
Setting atom values ...
  1 settings made for type
run 0 post no # done selecting a flying molecule
PPPM initialization ...
  using 12-bit tables for long-range coulomb (../kspace.cpp:340)
  G vector (1/distance) = 0.80638559
  grid = 36 36 36
  stencil order = 5
  estimated absolute RMS force accuracy = 8.1797113e-05
  estimated relative force accuracy = 8.1797113e-05
  using single precision KISS FFT
  3d grid and FFT values/proc = 4913 2592
Per MPI rank memory allocation (min/avg/max) = 5.425 | 5.447 | 5.489 Mbytes
Step Temp Atoms Density TotEng PotEng KinEng E_coul E_vdwl E_long Enthalpy Press 
   11200     0.983992     5201     0.749823 -15621.112379 -23296.251914  7675.139535   -67.709017 -22915.749607  -312.793290 -7974.429324     1.102415 
Loop time of 3.73744e-06 on 27 procs for 0 steps with 5201 atoms

group noneq_run_rigid    intersect   all         water               # select_lj no selection
0 atoms in group noneq_run_rigid
group noneq_run          subtract    all         noneq_run_rigid     # select_lj no selection
5201 atoms in group noneq_run
run 0 post no # mom rev random number
PPPM initialization ...
  using 12-bit tables for long-range coulomb (../kspace.cpp:340)
  G vector (1/distance) = 0.80638559
  grid = 36 36 36
  stencil order = 5
  estimated absolute RMS force accuracy = 8.1797113e-05
  estimated relative force accuracy = 8.1797113e-05
  using single precision KISS FFT
  3d grid and FFT values/proc = 4913 2592
Per MPI rank memory allocation (min/avg/max) = 5.425 | 5.447 | 5.489 Mbytes
Step Temp Atoms Density TotEng PotEng KinEng E_coul E_vdwl E_long Enthalpy Press 
   11200     0.983992     5201     0.749823 -15621.112379 -23296.251914  7675.139535   -67.709017 -22915.749607  -312.793290 -7974.429324     1.102415 
Loop time of 3.53159e-06 on 27 procs for 0 steps with 5201 atoms

######################################################################
pair_style   lj/cut/coul/long/neq 2.500000 3.500000 11200 100 1.000000 5 0 0 1.000000 1.000000 11 1.000000
kspace_style pppm 0.0001

# LJ (neq? True)
# real lj particles
pair_coeff  * *         1.  1.  2.5   # solvent + ions
pair_coeff  4*5 4*5     0   0   2.5   # wall atoms

        
pair_modify  tail no shift yes mix arithmetic # LB mixing rule
neigh_modify delay 2 every 1 check yes page 500000 one 50000
######################################################################
timestep 0.010000
fix  eqmd  noneq_run           nve                 # nve for non-rigid
run 100 # (neq? True) MD run
PPPM initialization ...
  using 12-bit tables for long-range coulomb (../kspace.cpp:340)
  G vector (1/distance) = 0.80638559
  grid = 36 36 36
  stencil order = 5
  estimated absolute RMS force accuracy = 8.1797113e-05
  estimated relative force accuracy = 8.1797113e-05
  using single precision KISS FFT
  3d grid and FFT values/proc = 4913 2592
Neighbor list info ...
  update every 1 steps, delay 2 steps, check yes
  max neighbors/atom: 50000, page size: 500000
  master list distance cutoff = 3.8
  ghost atom cutoff = 3.8
  binsize = 1.9, bins = 11 11 11
  1 neighbor lists, perpetual/occasional/extra = 1 0 0
  (1) pair lj/cut/coul/long/neq, perpetual
      attributes: half, newton on
      pair build: half/bin/atomonly/newton
      stencil: half/bin/3d
      bin: standard
Per MPI rank memory allocation (min/avg/max) = 5.425 | 5.447 | 5.489 Mbytes
Step Temp Atoms Density TotEng PotEng KinEng E_coul E_vdwl E_long Enthalpy Press 
   11200     0.983992     5201     0.749823 -15621.112379 -23296.251914  7675.139535   -67.709017 -22915.749607  -312.793290 -7974.429324     1.102415 
   11300     0.993203     5201     0.749823 -15618.805482 -23365.790611  7746.985129   -64.079008 -22992.525891  -309.185712 -8729.106087     0.993281 
Loop time of 0.30396 on 27 procs for 100 steps with 5201 atoms

Performance: 284248.186 tau/day, 328.991 timesteps/s
93.3% CPU use with 27 MPI tasks x no OpenMP threads

MPI task timing breakdown:
Section |  min time  |  avg time  |  max time  |%varavg| %total
---------------------------------------------------------------
Pair    | 0.057577   | 0.093537   | 0.11043    |   5.2 | 30.77
Kspace  | 0.15439    | 0.1722     | 0.20945    |   4.0 | 56.65
Neigh   | 0.014586   | 0.020695   | 0.0235     |   1.9 |  6.81
Comm    | 0.013652   | 0.01551    | 0.019898   |   1.6 |  5.10
Output  | 5.4897e-05 | 6.0763e-05 | 8.0873e-05 |   0.0 |  0.02
Modify  | 0.00040524 | 0.00057778 | 0.00076879 |   0.0 |  0.19
Other   |            | 0.001383   |            |       |  0.45

Nlocal:        192.630 ave         201 max         185 min
Histogram: 4 1 1 7 0 5 2 2 3 2
Nghost:        1843.70 ave        1862 max        1823 min
Histogram: 1 1 4 2 5 3 4 3 2 2
Neighs:        16462.1 ave       17541 max       15398 min
Histogram: 5 2 0 2 3 1 5 5 3 1

Total # of neighbors = 444476
Ave neighs/atom = 85.459719
Neighbor list builds = 25
Dangerous builds = 0
unfix    eqmd

group   solvent type 1
5001 atoms in group solvent
group   water   empty
0 atoms in group water
group   ions    type 2 3
200 atoms in group ions
group   wall    type 4 5
0 atoms in group wall
group   flying  type 6 7 8
1 atoms in group flying
group   eq_run  union solvent ions flying
5201 atoms in group eq_run
            
######################################################################
pair_style   lj/cut/coul/long 2.500000 3.500000
kspace_style pppm 0.0001

# LJ (neq? False)
# real lj particles
pair_coeff  * *         1.  1.  2.5   # solvent + ions
pair_coeff  4*5 4*5     0   0   2.5   # wall atoms

        
pair_modify  tail no shift yes mix arithmetic # LB mixing rule
neigh_modify delay 2 every 1 check yes page 500000 one 50000
######################################################################
# dealing with ideal flying particles: force field=simple_lj

# Non-interacting flying lj molecule (trial deletion)
# real lj particles
pair_coeff  * *         1.  1.  2.5   # solvent + ions
pair_coeff  4*5 4*5     0   0   2.5   # wall atoms
# flying particles
pair_coeff  * 6         0   0   2.5   # flying solvent  non-interacting
pair_coeff  * 7         0   0   2.5   # flying cation   non-interacting
pair_coeff  * 8         0   0   2.5   # flying anion    non-interacting

# flying solvetn or ions
set type 6  charge 0.                       # non-interacting
Setting atom values ...
  1 settings made for charge
set type 7  charge 0.                       # non-interacting
Setting atom values ...
  0 settings made for charge
set type 8  charge 0.                       # non-interacting
Setting atom values ...
  0 settings made for charge
        
run 0 post no # making flying moelcule non-interacting
PPPM initialization ...
  using 12-bit tables for long-range coulomb (../kspace.cpp:340)
  G vector (1/distance) = 0.80638559
  grid = 36 36 36
  stencil order = 5
  estimated absolute RMS force accuracy = 8.1797113e-05
  estimated relative force accuracy = 8.1797113e-05
  using single precision KISS FFT
  3d grid and FFT values/proc = 4913 2592
Neighbor list info ...
  update every 1 steps, delay 2 steps, check yes
  max neighbors/atom: 50000, page size: 500000
  master list distance cutoff = 3.8
  ghost atom cutoff = 3.8
  binsize = 1.9, bins = 11 11 11
  1 neighbor lists, perpetual/occasional/extra = 1 0 0
  (1) pair lj/cut/coul/long, perpetual
      attributes: half, newton on
      pair build: half/bin/atomonly/newton
      stencil: half/bin/3d
      bin: standard
Per MPI rank memory allocation (min/avg/max) = 5.424 | 5.447 | 5.489 Mbytes
Step Temp Atoms Density TotEng PotEng KinEng E_coul E_vdwl E_long Enthalpy Press 
   11300     0.993203     5201     0.749823 -15613.949802 -23360.934931  7746.985129   -64.079008 -22987.670212  -309.185711 -8719.708300     0.993936 
Loop time of 2.67774e-06 on 27 procs for 0 steps with 5201 atoms

# done post_propagate after NEMD
set type 6 type 1
Setting atom values ...
  1 settings made for type
run 0 post no # lj type change (reject_delete)
PPPM initialization ...
  using 12-bit tables for long-range coulomb (../kspace.cpp:340)
  G vector (1/distance) = 0.80638559
  grid = 36 36 36
  stencil order = 5
  estimated absolute RMS force accuracy = 8.1797113e-05
  estimated relative force accuracy = 8.1797113e-05
  using single precision KISS FFT
  3d grid and FFT values/proc = 4913 2592
Per MPI rank memory allocation (min/avg/max) = 5.424 | 5.447 | 5.489 Mbytes
Step Temp Atoms Density TotEng PotEng KinEng E_coul E_vdwl E_long Enthalpy Press 
   11300     0.993203     5201     0.749823 97738.704563 89991.719434  7746.985129   -64.079008 90364.984154  -309.185711 559488.892050    66.570057 
Loop time of 2.75689e-06 on 27 procs for 0 steps with 5201 atoms

set atom 539 charge 0.000000
Setting atom values ...
  1 settings made for charge
run 0 post no # charge return (reject_delete)
PPPM initialization ...
  using 12-bit tables for long-range coulomb (../kspace.cpp:340)
  G vector (1/distance) = 0.80638559
  grid = 36 36 36
  stencil order = 5
  estimated absolute RMS force accuracy = 8.1797113e-05
  estimated relative force accuracy = 8.1797113e-05
  using single precision KISS FFT
  3d grid and FFT values/proc = 4913 2592
Per MPI rank memory allocation (min/avg/max) = 5.424 | 5.447 | 5.489 Mbytes
Step Temp Atoms Density TotEng PotEng KinEng E_coul E_vdwl E_long Enthalpy Press 
   11300     0.993203     5201     0.749823 97738.704563 89991.719434  7746.985129   -64.079008 90364.984154  -309.185711 559488.892050    66.570057 
Loop time of 2.88874e-06 on 27 procs for 0 steps with 5201 atoms

run 0 post no # return_position back to old
PPPM initialization ...
  using 12-bit tables for long-range coulomb (../kspace.cpp:340)
  G vector (1/distance) = 0.80638559
  grid = 36 36 36
  stencil order = 5
  estimated absolute RMS force accuracy = 8.1797113e-05
  estimated relative force accuracy = 8.1797113e-05
  using single precision KISS FFT
  3d grid and FFT values/proc = 4913 2592
Per MPI rank memory allocation (min/avg/max) = 5.425 | 5.447 | 5.489 Mbytes
Step Temp Atoms Density TotEng PotEng KinEng E_coul E_vdwl E_long Enthalpy Press 
   11300     0.983992     5201     0.749823 -15621.112379 -23296.251914  7675.139535   -67.709017 -22915.749607  -312.793290 -7974.429324     1.102415 
Loop time of 2.5493e-06 on 27 procs for 0 steps with 5201 atoms

group widom_test         delete
group noneq_run          delete
group noneq_run_rigid    delete
reset_timestep 11200

group   solvent delete
group   water   delete
group   ions    delete
group   wall    delete
group   flying  delete
group   eq_run  delete
        
log logfile_hneqMDMC.3
