LAMMPS data file via write_data, version 28 Oct 2021, timestep = 10400

5201 atoms
8 atom types

-9.53555675648651 9.53555675648651 xlo xhi
-9.53555675648651 9.53555675648651 ylo yhi
-9.53555675648651 9.53555675648651 zlo zhi

Masses

1 1
2 1
3 1
4 1
5 1
6 1
7 1
8 1

PairIJ Coeffs # lj/cut/coul/long

1 1 1 1 2.5
1 2 1 1 2.5
1 3 1 1 2.5
1 4 1 1 2.5
1 5 1 1 2.5
1 6 0 0 2.5
1 7 0 0 2.5
1 8 0 0 2.5
2 2 1 1 2.5
2 3 1 1 2.5
2 4 1 1 2.5
2 5 1 1 2.5
2 6 0 0 2.5
2 7 0 0 2.5
2 8 0 0 2.5
3 3 1 1 2.5
3 4 1 1 2.5
3 5 1 1 2.5
3 6 0 0 2.5
3 7 0 0 2.5
3 8 0 0 2.5
4 4 0 0 2.5
4 5 0 0 2.5
4 6 0 0 2.5
4 7 0 0 2.5
4 8 0 0 2.5
5 5 0 0 2.5
5 6 0 0 2.5
5 7 0 0 2.5
5 8 0 0 2.5
6 6 0 0 2.5
6 7 0 0 2.5
6 8 0 0 2.5
7 7 0 0 2.5
7 8 0 0 2.5
8 8 0 0 2.5

Atoms # charge

4667 1 0 -8.570692548526123 -8.608325395927332 -8.597499338384392 -4 -1 -1
1824 1 0 -9.165544082645459 -8.315039583191645 -7.795435623965921 5 -1 2
1570 1 0 -8.219907259778891 -7.745185863939684 -7.975137661636083 7 -1 6
1921 1 0 -9.517190024883433 -9.391305571665722 -7.954590875179911 11 0 2
4835 1 0 -7.509686744640118 -8.819864330042432 -7.981370179820008 5 0 8
2991 1 0 -8.234376277931002 -9.11183991084844 -9.480423714794389 11 9 0
402 1 0 -7.266461671740273 -9.167284365948094 -8.974445693453585 -1 -2 5
1084 1 0 -6.9400669670362864 -7.54199520973628 -7.549418052126674 -5 0 8
2169 1 0 -5.608740666296108 -8.06023481225186 -9.067281348096909 3 4 2
328 1 0 -7.21322028130923 -8.037349020718857 -8.608846010567776 4 0 -5
3413 1 0 -5.6657840040026 -9.477074976209224 -7.798626192823805 3 3 7
4040 1 0 -6.459435534876959 -8.514256018315056 -7.826258845672513 9 1 -4
1157 1 0 -5.360021808143683 -8.37280495543863 -7.847488922147178 2 -5 5
1521 1 0 -6.290023984646959 -8.828915665997819 -8.960326463087432 -3 -4 -1
2727 1 0 -5.113553035047197 -9.113292668539597 -8.64703425757091 3 6 -6
1849 1 0 -4.578541507252433 -8.321657197569147 -9.140997819952535 -13 5 -4
3058 1 0 -4.220128628944986 -8.254267694588126 -7.5857348963468265 4 -1 7
756 1 0 -3.617718410159847 -8.91853857526076 -8.889831124456144 -8 -2 2
2461 1 0 -3.786612839426071 -7.715457104120672 -8.640974384183222 -3 1 3
1644 1 0 -4.238781047362778 -9.420012211025625 -8.14214874300746 3 3 -1
738 1 0 -3.272701155553998 -8.549418663503682 -7.8954699419732695 0 0 2
2436 1 0 -7.775424876794425 -7.282202658839464 -9.3712958802466 1 0 0
4621 1 0 -8.667860966435795 -7.2420436356168985 -8.78030623560645 11 0 1
527 1 0 -8.029543995174912 -5.3930742869549855 -7.941273058264965 -6 -4 -5
926 1 0 -7.537160284502943 -6.842296323443898 -8.33064671820434 10 -8 -5
86 1 0 -8.849480137767323 -5.883705354360818 -8.553673448077184 0 3 2
1020 1 0 -8.453115737904373 -6.477118515923573 -9.44846558746088 -3 -2 1
4423 1 0 -8.881646219507793 -5.975401478275744 -7.509145996140062 5 0 -4
4189 1 0 -9.176511797031853 -7.007475598853337 -7.8387272532505055 1 -1 -2
2182 1 0 -7.3591043682847 -6.32304643034834 -9.24850926490029 4 8 6
1706 1 0 -6.545771166262257 -7.005566747122213 -8.308316654824301 -3 1 -2
1148 1 0 -7.0882730093940856 -5.835355110699545 -8.364768069929342 3 -5 4
3373 1 0 -6.3270166370828145 -6.121662288720488 -9.065846045521068 1 -1 -1
249 1 0 -5.701298976404987 -6.41533725608432 -7.874646218717672 -4 1 -1
2644 1 0 -6.6974480709109185 -7.138769634935624 -9.270519532035271 0 1 -9
2489 1 0 -5.397060594964267 -6.3608834241455545 -8.916923809031488 6 0 -8
566 1 0 -6.190959196484834 -5.480244148511437 -7.769936602267936 -4 0 -1
1917 1 0 -5.875038472904208 -7.40355786530533 -7.5592222404503335 0 -1 0
3431 1 0 -4.954158472541715 -7.391068758760287 -8.410797414473631 -2 -1 0
578 1 0 -4.1934326791735606 -6.7106912944901795 -8.973740051439808 1 0 8
31 1 0 -4.383506812716201 -6.202783138086999 -7.938125827780894 -7 6 2
1498 1 0 -4.082622237437106 -5.595700949980833 -8.730618611032508 9 -2 -2
3379 1 0 -5.164935024826851 -5.390944895545313 -8.875396286829 10 0 -1
4239 1 0 -3.609083299797643 -6.820673101441946 -8.139291185062987 4 4 -2
3655 1 0 -8.954089771436378 -4.933306378489854 -7.655299782762552 -2 -3 -1
1768 1 0 -7.578592812319395 -3.3129392525988886 -8.541704886420005 8 -1 0
3502 1 0 -9.231735828671063 -3.891029663417441 -7.955914068318842 9 -2 3
1355 1 0 -9.190275789449789 -4.821792102080259 -8.739022795052515 1 3 -6
154 1 0 -7.7960192457086075 -5.034352249218523 -9.020079231478572 8 5 -7
4076 1 0 -7.9752447534535875 -4.442281984194629 -8.183557156820713 -1 0 3
2759 1 0 -9.056328618663532 -3.2182961774433774 -8.90679334726881 4 -5 -3
2343 1 0 -6.5656097721552475 -5.105584427395831 -9.352966952177502 0 -5 5
1732 1 0 -7.126282633952202 -4.197358282557876 -9.105846086345634 -1 6 5
2082 1 0 -6.919036544247764 -4.728071100954023 -8.285643140908434 5 1 7
2352 1 0 -5.688843986949488 -4.609864165301062 -9.046400201066872 -8 0 3
1155 1 0 -5.941774459413803 -3.774631339660446 -8.09026190220797 -2 -4 1
1193 1 0 -6.4571637740167125 -3.3382579488276596 -9.128818716340623 -1 -5 -1
2927 1 0 -3.459621700794503 -4.852612055972604 -8.30733920876631 -8 -1 -1
3469 1 0 -4.911092750068561 -5.129065363490799 -7.824626902605254 2 -5 -1
1421 1 0 -3.5766875909665092 -3.6609303836119422 -8.22841955711479 5 -6 -4
3995 1 0 -4.504517851390216 -4.169033720077899 -8.326661672335627 -4 -3 -3
3915 1 0 -3.826681617058553 -4.159536756999145 -9.172985606534416 -2 8 -4
408 1 0 -4.855652433955792 -3.7372894551950537 -9.35720532593963 7 5 -1
4191 1 0 -4.874012289262627 -3.7046536876983147 -7.537687892380215 -5 -2 2
2147 1 0 -8.741363151747633 -9.089503840650385 -6.870889046805321 0 3 0
5057 2 1 -8.26988138550405 -8.289935617664609 -6.972315020142039 6 2 2
866 1 0 -9.01090478280733 -7.945588274560883 -6.174975570581587 -2 1 0
5148 3 -1 -7.638466593661746 -7.420934434707525 -5.663798530964834 -2 3 -5
4892 1 0 -8.263801237108884 -8.718893357562017 -5.944958440734603 0 5 -3
2958 1 0 -9.338619469339946 -8.973599761663188 -6.048429451772601 4 -9 -1
108 1 0 -7.325217433292037 -7.84912722062896 -6.6788231736553545 0 10 5
2832 1 0 -7.097284719139719 -8.875699960485576 -6.7847382059496875 -3 4 -9
239 1 0 -5.976833627261841 -8.96157745267144 -6.792819998363708 0 -5 5
1555 1 0 -6.650350132091479 -9.390922860988875 -5.992759244318286 -1 3 8
1138 1 0 -6.341465700346531 -7.804935247224033 -6.7046128685379465 -8 -4 2
4659 1 0 -6.778034077757329 -8.351203594319 -5.786696065184084 3 -2 -4
2859 1 0 -5.112295550607127 -8.099008065701636 -6.781860331821222 0 -6 -2
942 1 0 -4.962268569488441 -9.248010516286389 -6.94919550409073 1 -12 0
4221 1 0 -4.842739855172312 -8.740018463542048 -5.970748938813956 5 1 -3
606 1 0 -3.8696917613730757 -9.035990305108758 -6.704146717996156 -3 -5 10
1724 1 0 -3.3401394060673053 -8.07975453431186 -7.041245214022151 -3 5 6
3804 1 0 -3.702443146175649 -7.44873669724662 -6.154741295672836 2 1 2
818 1 0 -5.155249740597251 -7.814765722033043 -5.323423362091208 2 -3 5
4106 1 0 -3.3513770396100577 -9.360407119542286 -5.649922025217295 4 -1 3
1662 1 0 -8.133941762192372 -7.051348504078148 -7.168532115927744 -9 -1 -1
3522 1 0 -9.146469475935172 -7.206244706141004 -6.896755138499616 0 -8 -1
43 1 0 -7.811996220697816 -6.138525568577308 -7.274383903856816 4 -3 -1
5073 2 1 -8.424457016060225 -5.952532533382563 -6.292535389648263 0 1 -2
1235 1 0 -8.74256049928135 -6.975842763194335 -5.926232311203508 7 -3 3
4305 1 0 -9.507585941174437 -6.07580856526357 -6.539170646122227 5 3 0
1445 1 0 -6.455016706901987 -6.435544902384767 -6.937676008827116 0 -5 1
3081 1 0 -7.37709910682318 -6.306419000869518 -6.13461732751886 -4 0 3
4287 1 0 -5.448758183972922 -6.387892924537223 -6.3273636886172255 5 -4 2
5115 3 -1 -6.793302977888158 -5.548178332433053 -5.658473011122438 8 -1 -10
1501 1 0 -7.104247671771177 -5.3618979231337365 -7.356038215050367 -2 2 13
4037 1 0 -6.293428837502174 -6.905010936946319 -5.758347193395476 4 4 7
3405 1 0 -4.197526084539774 -6.35268708291583 -6.581146464969079 -4 2 -2
4574 1 0 -5.119480686815098 -5.583157498458747 -6.963080575535897 6 0 4
2651 1 0 -3.3994600354432687 -6.127311545827752 -7.361462213329546 6 4 8
2882 1 0 -4.6575570742979435 -7.191018189656073 -6.046542855532335 -3 -4 -7
3090 1 0 -5.0360628231994 -6.927610349262739 -7.228298526947417 -4 2 -7
68 1 0 -3.849136617363918 -6.355411859123427 -5.6289523290883015 -15 -7 10
2251 1 0 -4.050509079074207 -7.240414154993413 -7.2079368288409205 -2 -6 9
4726 1 0 -8.423712320455149 -3.397584804212401 -7.385542920418586 3 1 5
2994 1 0 -9.253242868669995 -5.132800526439142 -6.22630949591215 2 1 1
1743 1 0 -9.1333916677145 -4.193335034572733 -6.903633814799714 -5 -1 7
2870 1 0 -8.109824943735642 -4.784328220638797 -6.996427689521593 8 1 -7
1925 1 0 -8.45098362357615 -4.631050526516079 -5.9347441959176335 11 9 4
2914 1 0 -7.875044174222278 -3.7958072719397054 -6.4764626578543245 -6 5 7
3638 1 0 -7.507844256536277 -5.181837993157691 -6.232468056715537 3 4 0
4768 1 0 -9.166565214778698 -4.03469347303134 -5.302885568733322 1 1 2
3235 1 0 -7.63177662236863 -4.244362277554144 -5.447386622643879 -3 -1 8
1412 1 0 -6.161847130040083 -5.288834155222787 -6.345144915085857 -3 -3 2
2472 1 0 -6.71019855554614 -4.537921619624418 -5.661325844380455 -3 0 4
3888 1 0 -6.7295191655956605 -4.257889693502911 -7.033486042932182 0 6 -6
371 1 0 -5.405701157548672 -4.61900363640084 -7.099208517606459 -1 4 -6
4448 1 0 -6.39284142741153 -3.5099894499458126 -6.002991199002786 2 3 5
4609 1 0 -5.662868071495198 -3.9187158081207385 -5.427012990847672 6 1 4
1474 1 0 -6.102604603094288 -3.226875835884178 -7.1375969591472925 3 0 -3
3739 1 0 -4.576706151528634 -3.359760269295527 -6.421922057876561 0 -4 5
1211 1 0 -3.309960820482183 -4.928034411627215 -6.700280860756428 -5 0 3
2393 1 0 -4.058044112993567 -5.23788806576046 -7.22721019103881 9 1 3
1838 1 0 -3.8354759310785584 -5.0840684987922495 -5.809757034539086 -7 -9 -2
4007 1 0 -4.988037756977792 -4.632736389858806 -6.0240365077531415 -3 -2 3
3850 1 0 -4.075210743483055 -4.313314147644972 -6.642655505661101 2 0 -4
4470 1 0 -4.15659194645857 -3.807884965176976 -5.582125283948867 -4 0 -5
10 1 0 -9.09862602789355 -7.778509091460922 -5.137070890534531 1 13 -5
2824 1 0 -8.81758007927398 -9.204138209584132 -4.967811688302307 0 7 -4
427 1 0 -9.246149808576737 -8.494439206914345 -4.345605561835447 -7 3 3
3099 1 0 -8.341808976034063 -8.937582076389496 -3.9720605192637524 2 2 -4
3678 1 0 -8.43399112641364 -7.887297720288842 -3.976511833609396 -6 -4 -7
5146 3 -1 -7.675592977164126 -7.980414609355252 -4.792322399457833 -1 4 0
3074 1 0 -7.458006127342088 -8.266148135028079 -3.6589715872615907 -5 -3 5
4734 1 0 -7.379487804388883 -9.336723434546814 -5.181508680993105 4 -2 9
4653 1 0 -7.365892525719919 -9.386089555118401 -3.885758035387902 -2 2 4
1075 1 0 -6.0076538573383615 -8.865457660257716 -5.279003272256947 1 9 -11
929 1 0 -6.557306015503109 -7.824136779095557 -4.826216108313034 0 12 -3
3535 1 0 -6.794591662227688 -8.816643468834705 -4.53237765839064 -1 -9 1
1592 1 0 -5.708266100145352 -8.405393233342812 -4.355250630631087 1 -2 2
1072 1 0 -6.55453074082415 -8.704326993687665 -3.4441875056946256 -8 6 0
582 1 0 -6.328616128433286 -7.694464008949419 -3.8283282601728454 4 -1 -3
5147 3 -1 -4.987011661790136 -9.154056041048918 -3.9405217212349104 4 3 -9
2126 1 0 -3.8615369784030444 -7.858970557270281 -5.124022453828707 -5 -4 -11
480 1 0 -4.44891128859779 -8.888725767144459 -4.903760038672667 2 -1 -5
3083 1 0 -4.060414843706344 -8.278465438265478 -4.086701011530267 6 -1 7
213 1 0 -5.12598855173769 -7.60636484185754 -4.152629183998855 -1 -4 -2
4819 1 0 -3.196586965303432 -8.746227484544827 -4.50303940038523 3 -9 6
4219 1 0 -8.725162910046198 -6.019558293697317 -5.243306216221113 4 -3 -2
4945 1 0 -9.058749016029841 -5.354313496844446 -4.550056396470591 5 4 5
922 1 0 -8.87544295744655 -6.571450199999739 -3.60558413007437 -6 4 1
512 1 0 -7.530587009498404 -6.57662707129163 -4.032759359207173 10 4 2
2926 1 0 -7.535159315410605 -6.151968486315202 -5.073199057233614 11 10 -7
2999 1 0 -9.441713294657077 -6.483518272861538 -4.509380910649763 -3 4 -1
5026 2 1 -8.296968458271458 -6.9461979220008265 -4.929139050161419 0 -6 -2
3930 1 0 -8.266261638127157 -5.8811455042701155 -4.224814970527883 8 0 1
303 1 0 -6.9652981944655386 -5.574385073373662 -4.022769257123529 1 6 -3
1196 1 0 -6.719554551759667 -6.786672388295736 -4.705536903332558 -5 0 0
4776 1 0 -5.977454088698968 -6.5728933647484205 -4.2033174594728875 1 7 2
1979 1 0 -6.5472485797674675 -6.52594812491442 -3.181907309432182 3 3 -1
4499 1 0 -3.9562430830032578 -5.584349928695753 -4.707324905582493 4 1 -4
4480 1 0 -3.260178194471387 -6.460480939049272 -4.7954488854494475 0 -2 3
3571 1 0 -5.210186470042077 -6.79931229750012 -5.0970756712566185 0 -8 9
4314 1 0 -4.918704917804278 -6.614383994899641 -3.21722097341865 4 1 7
3148 1 0 -4.828936072933116 -5.7938399317531095 -5.2762063900407785 -2 -8 3
1826 1 0 -4.160051288732025 -6.905440731102156 -4.694456105116179 -5 -3 -1
2026 1 0 -4.778406326714003 -6.346892796047273 -4.091875356373209 6 1 1
3266 1 0 -3.724777063216459 -6.95912913153558 -3.403306802629361 4 3 4
4526 1 0 -3.3092366884535664 -5.83449384749339 -3.6763162326337158 1 0 -3
3208 1 0 -9.185578249158196 -3.3948867016212243 -3.4404505468637647 -7 -7 0
61 1 0 -8.128164257999568 -3.5679330126356747 -3.4994249815076564 -4 2 -8
844 1 0 -8.448517700248718 -4.838700683818704 -3.3862204036484886 1 0 -3
855 1 0 -8.626106104787281 -4.305234992513864 -4.259700296865103 -1 -2 -4
2555 1 0 -7.777180442147784 -5.1117617394666715 -4.785777956646669 -2 -2 3
475 1 0 -8.206691178138813 -3.4628482150897315 -4.889856150824861 1 -1 1
4975 1 0 -9.218238645132015 -3.1841116328873955 -4.692889186730191 5 1 0
703 1 0 -7.512330215971287 -4.402401543283251 -4.004320167995473 10 -5 -2
3110 1 0 -5.638302248831551 -4.43003449427509 -3.4187636834849613 6 0 -6
451 1 0 -5.847440946088309 -5.05345206731516 -5.147934021477892 -7 0 -10
384 1 0 -6.667325331301968 -3.714506248255723 -3.596088352371688 6 -1 5
4686 1 0 -6.612096596325936 -4.788019083787662 -3.2080546653326336 6 -1 7
626 1 0 -5.570007556258119 -4.142373287866314 -4.4922864924695975 1 -2 -4
1019 1 0 -6.665312697865003 -3.699993920878891 -4.878971530376718 1 2 -3
3279 1 0 -5.826349774262224 -5.295728832419301 -4.068909471450968 10 -2 -4
3194 1 0 -6.723841996534956 -4.741682679645783 -4.5852429093119955 -5 1 10
3834 1 0 -4.562094596096472 -3.532633258442082 -4.683030508550715 -6 4 1
3418 1 0 -4.8987404298350725 -4.714695892397719 -4.988874449851467 -1 0 2
3625 1 0 -4.074392521560884 -4.327522849524543 -4.212045642824217 2 0 2
2665 1 0 -3.4854969449841327 -3.2254196824313137 -5.0398706034037515 6 -7 3
2733 1 0 -3.307856729684754 -4.479971001850409 -5.077995790526213 3 2 -1
2493 1 0 -4.705608956505086 -5.161734704576386 -3.9863668824144076 0 1 -8
2850 1 0 -4.974435986970261 -3.589512043366188 -3.7172273918917202 -7 -4 5
1885 1 0 -4.019647315716803 -4.840099918290668 -3.3072669919557955 11 2 0
827 1 0 -7.555870188633937 -9.088526995972513 -2.8097220208858094 -5 -2 0
4585 1 0 -8.379643637779385 -9.491220493960489 -2.417739962515868 10 0 -2
2628 1 0 -8.328630212364695 -8.356612989462695 -2.9401745926240457 -7 -4 -3
5045 2 1 -8.772296250550003 -7.4865099585788 -2.0430695398026146 -4 0 0
3134 1 0 -8.103840799102976 -8.276686164956724 -1.7794331002266088 4 3 4
1509 1 0 -9.311946680770747 -7.551587261484419 -2.838856593831788 -2 3 -7
1594 1 0 -8.941060773211232 -9.034741916317767 -1.4363983223433765 -6 -2 -3
1440 1 0 -9.17072717229745 -8.900355905381868 -2.9759759979588063 1 -1 5
218 1 0 -6.815022605951066 -7.845773970658548 -2.698847323354462 2 2 1
3109 1 0 -7.219954995915211 -8.919233906113572 -1.8259677484668617 -4 4 -1
1351 1 0 -6.525573644002419 -9.098402637781628 -2.485841160196791 -3 4 -1
3626 1 0 -5.893605058332094 -8.209394043299142 -2.219184176830713 4 6 0
545 1 0 -6.578454724217812 -7.760495299210864 -1.5974514043869146 1 -10 1
2299 1 0 -6.257829667245742 -8.89775959857863 -1.42436634601532 0 5 -7
4277 1 0 -5.4148315894606736 -8.438806243095543 -3.1614479555707966 0 -2 3
4165 1 0 -5.4785730087092706 -9.143304904755993 -2.0921513648386427 5 -4 -2
2443 1 0 -5.286287877012417 -8.558099710614034 -1.137133927321686 0 5 4
648 1 0 -3.5296965714876225 -9.014343843140383 -1.4585956529467012 5 -2 2
771 1 0 -4.463966576394695 -8.49046658727456 -2.0947169749348955 1 4 6
340 1 0 -4.282482847402091 -7.984473451596998 -1.219017406568928 8 -8 -4
2112 1 0 -5.137508525513845 -7.533462705903123 -2.014145650159008 -1 7 0
2124 1 0 -4.083074468641553 -7.4611924814150195 -2.1805957278901533 0 -4 2
1639 1 0 -4.429779782202589 -9.45864302907627 -1.5760680826415814 6 -2 -7
3218 1 0 -4.555071846744203 -9.373673863212884 -2.705574591455928 7 -10 2
605 1 0 -3.400972523247085 -7.634652561246371 -1.355291514790421 -3 -4 2
4461 1 0 -3.861336320556598 -8.940913825270991 -3.1643986240635082 -9 -5 5
1975 1 0 -4.50024531485956 -8.090542612615264 -3.1393020728449517 0 6 -1
3997 1 0 -7.742332029723519 -7.205713181566427 -1.836510577283529 6 -1 -4
473 1 0 -8.221922614440901 -7.340464883866752 -3.0313449764178118 -4 2 10
2103 1 0 -8.234661425424578 -6.273527708234559 -1.9925275216604543 3 2 -6
1757 1 0 -9.054542304720492 -5.85672022148995 -2.8856606442800445 -1 -3 -3
2506 1 0 -9.281706105366666 -6.514198014705833 -2.0268612177298246 3 -1 2
1363 1 0 -8.948026910561547 -5.879385440749509 -1.1832937482455816 -2 -2 16
361 1 0 -7.595805707917399 -5.475287352306104 -1.8667863763303691 3 -4 -3
2500 1 0 -7.743949263216426 -6.429268728895479 -3.0214188807571247 1 -2 -6
1494 1 0 -5.732503998519744 -7.3897318112749 -3.0321057520967405 -3 0 -2
1402 1 0 -7.178183729662659 -6.432684877103945 -2.088539653428641 11 10 -1
1690 1 0 -5.825872226754228 -6.614843043394181 -2.3412133750073942 -5 1 1
1637 1 0 -6.31260220329894 -5.481998542239247 -2.21900200161616 4 6 2
4556 1 0 -6.426724161131658 -6.641888828655063 -1.2902716646499326 1 2 -6
1505 1 0 -5.563862441753861 -5.85243101223958 -1.5650652464764565 -3 1 1
1884 1 0 -7.306173151041875 -5.486394945702257 -2.9837919005386637 4 -2 1
3365 1 0 -5.665638023301967 -5.977167711378566 -3.1274469409497523 6 -1 5
2961 1 0 -3.8253585616555834 -5.741593927182497 -1.602467450293264 -2 -1 12
3025 1 0 -4.66522323638937 -6.4245379991238 -2.0344172584597398 0 -1 0
4044 1 0 -4.018275531448241 -6.80738701979463 -1.1294418503345927 -4 7 7
253 1 0 -3.612474001962835 -6.515353460030972 -2.365798752698412 0 10 8
2660 1 0 -4.135744177919421 -5.862106838240665 -3.095985025954431 3 0 3
1140 1 0 -8.59863994642049 -5.161074686678285 -2.284462428513862 1 0 -6
1269 1 0 -8.666519841126862 -3.8365621934814205 -2.6601489548468806 3 2 2
1674 1 0 -8.365825609578822 -4.21870030511535 -1.6644310804478262 1 -2 3
1091 1 0 -7.741866817989971 -4.320154082964194 -2.446325424811245 7 3 -2
4097 1 0 -7.224860750081331 -3.981003880078409 -1.579113120755346 -5 1 -1
3910 1 0 -5.965945817811804 -4.0955129496958715 -2.4261727449947044 6 5 4
4514 1 0 -6.286790571707194 -4.053028911567626 -1.297343831581589 -1 5 -1
2552 1 0 -5.49021445437538 -4.897308935369356 -1.1588242266191837 -7 -4 -1
3856 1 0 -7.302669466793219 -3.4359083235868035 -2.848805016956158 8 0 -3
782 1 0 -5.399729837292771 -3.226683306152278 -2.4298142607912867 -3 6 6
2486 1 0 -5.2022378277172105 -4.010171492523038 -1.6598240424516846 2 -5 3
881 1 0 -3.201691128665926 -3.306252792536148 -3.13896457205347 7 0 -3
4528 1 0 -5.236315113774722 -5.21517049526023 -2.503522990698265 -2 -3 -4
2458 1 0 -3.1978078571334647 -4.136979693083375 -2.146637114361185 2 -8 7
2211 1 0 -4.125064297620322 -4.542832989367643 -2.312642973834111 1 0 3
4362 1 0 -3.5228181624254673 -4.4240874619400605 -1.1006581452664195 -1 4 -3
3038 1 0 -4.296097665782252 -3.5788271740354354 -1.865411351213584 -2 1 6
747 1 0 -4.855311455500007 -4.209417252523372 -2.758491108654432 3 0 -2
4608 1 0 -9.175907039023043 -9.127510078685859 0.3470249952604235 1 -1 -6
1004 1 0 -8.854220037146684 -8.592712165173744 -0.5360032428369611 0 -5 7
2170 1 0 -7.95991309876673 -8.475113864114558 0.05489201389316797 -3 3 -2
416 1 0 -8.041359366819295 -8.976330453218022 -0.8660640777697352 -1 4 6
2414 1 0 -8.37197559913529 -7.643167333984412 -0.963673576172024 5 3 3
539 1 0 -8.42656821679509 -7.574992746657318 0.056837023934821505 -15 1 -9
3274 1 0 -9.024942043416852 -8.122060354882375 0.8477270861505634 3 -1 0
4306 1 0 -5.996216645273065 -9.486617336488418 -0.5930986452350966 3 0 -6
1830 1 0 -5.8682659997960265 -7.567338751365059 -0.8790052835510823 -2 9 11
1429 1 0 -7.03688226410971 -9.338050539482957 -0.04792277004640082 -4 5 0
3324 1 0 -7.18760771284242 -8.228340054779252 -0.6943885617171638 -3 -1 4
1021 1 0 -5.973421133375223 -8.385585780185204 0.9669923044300337 1 2 -4
4060 1 0 -6.2156964323171415 -8.46239224928044 -0.23710952212648873 10 2 4
2335 1 0 -5.746975247111506 -9.286839973188995 0.4212531628263398 -12 -4 -1
4260 1 0 -6.708812249768966 -7.627387044955098 0.24064456127350595 5 -6 -2
3040 1 0 -4.711652434668728 -9.452696563183569 0.5654943395007305 -4 -2 0
2898 1 0 -5.054159129038919 -9.148683003310062 -0.30981529099386684 2 -1 -7
1822 1 0 -4.764037449274836 -8.281667389562088 0.3430283545645625 2 7 -2
4530 1 0 -3.962945063035365 -9.01624664730039 -0.014586024355086205 8 -7 6
4032 1 0 -7.868484429062772 -6.513997681592843 -1.0220637323959658 4 -1 5
2106 1 0 -8.108586375497968 -5.575471477373252 -0.41302306341870615 -3 4 9
1476 1 0 -7.703140375219006 -6.811593809765128 -0.0038793743167433916 -5 1 3
344 1 0 -8.859284875333778 -6.32783797886911 0.062266368593088 0 0 1
4722 1 0 -9.203431827158804 -6.9269507160238275 -0.6774719385489497 -7 11 2
3938 1 0 -9.043324031244007 -6.88706419245551 0.9708661838783251 -3 -1 4
3300 1 0 -7.181757231353078 -7.252130869771582 -0.9579289310177295 -9 8 0
3163 1 0 -6.75862941510681 -5.724011873887556 -0.7864222031710244 8 -9 0
4887 1 0 -5.590199841078151 -7.273352850913416 0.6416772637008795 -5 1 -2
3010 1 0 -6.531683663278077 -6.75179161071186 0.8779031072201093 2 0 3
228 1 0 -6.723849751481981 -6.674465015604092 -0.18056508031916615 -4 -8 -1
4948 1 0 -7.133147887649491 -5.741056709849735 0.13578078545191308 -1 2 -4
2041 1 0 -5.729210366279443 -6.320501444901609 -0.016352971152300506 4 4 1
615 1 0 -3.5247514528552135 -7.141355994801584 0.08951972048545417 1 5 -3
4538 1 0 -5.001198733884362 -6.481407359853899 -0.8832342260477506 2 8 -6
2431 1 0 -4.250863524823491 -6.189365610362191 -0.37798084108846697 2 0 -2
2015 1 0 -4.730068155122013 -7.0800045090236035 0.05597154892730872 -3 3 4
882 1 0 -3.520226801519671 -5.534790149898115 -0.5887795300319233 -7 11 -4
3193 1 0 -4.5916292008328865 -5.462741141941587 0.27452987372590393 1 1 -1
2580 1 0 -4.651763500094589 -5.376488649029485 -0.845349272890371 -3 4 -5
1572 1 0 -4.43837539730477 -6.361233538831859 0.7116436508311349 -2 -4 -2
2437 1 0 -8.19812861109494 -5.093221795981895 0.7644881277216278 -4 -1 -1
450 1 0 -8.345484485048631 -3.419474552434559 -0.5732028573338582 1 2 -1
592 1 0 -8.837830443746892 -4.014892111896579 0.14453106804272314 2 3 -8
3366 1 0 -8.479210960197884 -4.565972150735139 -0.6953487691669464 7 1 -2
1915 1 0 -7.646147862693697 -4.1129814347033875 -0.1951758975050575 7 0 5
3497 1 0 -8.042175269169995 -4.030005620538837 0.9201296025873867 9 4 -2
3814 1 0 -6.602846017357081 -3.439626046312064 -0.5632131835544577 3 3 -9
2973 1 0 -7.3090645490764246 -4.794667025845498 -1.0297636360472822 8 1 -9
5 1 0 -6.249040818375725 -4.803320864782622 -0.19276852334417052 2 -3 0
3633 1 0 -6.905342179722219 -3.6762897362391715 0.6721679724065766 10 -1 2
4004 1 0 -6.051106724261558 -4.257341731834955 0.9414236827703778 -1 4 2
364 1 0 -7.129116294587392 -4.805309745834311 0.753289398826742 4 -3 5
4041 1 0 -5.309197172497791 -4.307441743285249 -0.07334011587048157 1 -2 1
823 1 0 -4.712008033411587 -3.995048195393714 0.7223441008499991 -8 -1 -7
507 1 0 -3.7909815068503097 -3.405249862328656 0.8609783468122466 -6 8 5
1675 1 0 -3.6967425600243904 -4.7256478965078195 0.8822938470154745 -3 -6 -4
4030 1 0 -4.515259467326592 -4.219473577967474 -0.9088136862721549 3 -10 2
817 1 0 -4.240831901998026 -4.5636638852833205 -0.06034143980962682 -1 2 0
3157 1 0 -3.5851499321845997 -3.60445117046218 -0.3883194460665561 7 -1 3
710 1 0 -9.02089718244498 -8.01967456672832 1.9162419539355742 -2 -6 -1
2002 1 0 -8.111607085118958 -8.760166947583834 1.3856861968776317 -1 1 -11
4366 1 0 -8.122849994590885 -7.575948123586684 1.159712558475238 4 -1 -7
4353 1 0 -8.17142513045307 -8.210435379241066 2.4659019146118193 3 -2 -6
1977 1 0 -7.869776929842969 -9.308339401306851 2.446127237221896 9 0 1
1518 1 0 -9.32835066813355 -9.364838475738182 1.7858192220078752 -13 5 -4
505 1 0 -8.860548637402486 -8.721302042734708 3.1486550810624627 0 6 -9
2070 1 0 -6.679891471700896 -7.580592394308398 3.083698314750368 12 -11 1
300 1 0 -7.350135577130254 -7.771989671873016 2.1398040461209766 1 0 0
5099 2 1 -6.947939079618449 -9.176212443087982 1.5815587337286279 -2 -6 1
5143 3 -1 -6.059445435831081 -8.715152741017164 2.3823134983302565 2 4 -1
3941 1 0 -7.007499935452267 -8.587824731657225 2.7356264819550726 8 8 -1
4338 1 0 -6.124206580164578 -7.562709873075715 1.649419206806524 1 -3 1
667 1 0 -4.783111345285877 -9.293952199646757 1.6047642078607713 -3 0 -3
1054 1 0 -3.3761959223114797 -8.626528851063002 2.0211363101985755 10 3 9
2915 1 0 -3.8490447734135556 -9.441964155135242 1.0940504669502273 4 2 1
2371 1 0 -5.250292433576316 -7.890427564838092 1.8351348827904892 1 1 1
4940 1 0 -4.924452379893412 -8.536683200678354 2.6405615152457953 4 0 -2
836 1 0 -4.154930067114391 -8.405361448556983 1.2591634399027007 0 0 -4
2039 1 0 -4.140250423011949 -9.341290390585558 2.3293279647637983 -1 6 8
169 1 0 -4.242312131913756 -7.766386278196095 2.1571974517859958 0 2 0
5048 2 1 -3.2997900381850895 -7.442354334127868 1.6642978594842759 -1 8 -2
2417 1 0 -4.896630221543159 -7.497023536838998 2.929515670832343 3 -4 6
3237 1 0 -3.8115221922878537 -7.759889818965563 3.095501809758574 2 -2 0
3050 1 0 -9.444485755658446 -7.292693540231622 2.72828432777571 2 4 1
3955 1 0 -8.611440758776181 -5.864878722218963 1.1688496089211475 6 4 10
474 1 0 -8.78758474917164 -6.3945346763842705 2.817325153768678 -3 5 -7
4764 1 0 -8.584963700442623 -6.97842979027768 1.971184775567894 -5 8 2
2310 1 0 -9.446663441401505 -6.2967054640302 1.9253212871855665 0 3 -6
3697 1 0 -8.277282749190027 -5.849183996221385 2.103063516760632 4 -10 7
2705 1 0 -7.525459417402755 -5.983205082791126 1.1351173370442131 0 5 -1
767 1 0 -7.841097836054112 -7.086215433863919 2.987697280860833 -4 0 0
755 1 0 -5.558996987716424 -6.973251177963338 2.4016664579732385 -3 -6 1
4699 1 0 -7.396441786765084 -6.928246289669075 1.7379745031316616 8 2 6
947 1 0 -7.032510336722818 -6.388342971233327 2.581266660328958 -3 0 8
414 1 0 -6.198602856971372 -6.294243971873989 1.7680205146475823 -6 -3 -8
2684 1 0 -7.158305327220479 -5.488712419442468 2.1137576658424067 2 0 1
3790 1 0 -5.793541648147817 -6.180374510430217 2.9939840978790593 -2 -11 5
621 1 0 -3.8416752112452253 -6.540821256462244 1.5765312350406313 -2 -3 0
4230 1 0 -4.426480191192594 -7.407113526884973 1.071955601561093 -4 -1 -2
4763 1 0 -5.200909672579867 -5.488486664140059 1.958829087819896 -2 9 -1
4298 1 0 -5.178674058188781 -6.569321584228433 1.4483979903001083 0 -2 2
230 1 0 -3.821711727651094 -5.6290780409191115 3.0385129025656274 -6 0 -5
872 1 0 -4.5644065954030175 -6.361637600446534 2.456092156797868 5 3 0
2943 1 0 -3.5500307178548614 -6.592927485589499 2.666463636517902 3 0 -5
4103 1 0 -4.199395839649549 -5.461147906226287 1.3863881731086094 -1 12 -5
1186 1 0 -9.519624862781617 -5.276508844018291 1.672286513778359 4 1 -6
3563 1 0 -8.566483566822086 -3.795247050692565 1.988762810164856 5 1 2
4925 1 0 -8.618918884850608 -4.7590741046415275 1.8342105733990328 6 -2 3
1131 1 0 -8.817287731806728 -4.984990977057684 2.8258714462013095 -3 1 -3
4223 1 0 -8.88760208607794 -3.367389368348527 1.0730366108745635 5 5 3
3005 1 0 -7.450043221102458 -4.66730801497694 1.7239421828253314 -1 -1 -7
2020 1 0 -7.2804581534140285 -3.665026982673497 1.7789022346666272 -5 0 -3
696 1 0 -6.313242762210791 -3.304973103290764 2.876826768624367 3 9 5
2528 1 0 -6.388075302647698 -5.125617334097313 1.5224573235103138 1 -3 0
584 1 0 -6.365047954954709 -4.220314490180101 2.2138126370494726 -5 -4 4
5042 2 1 -6.067473549518481 -5.183417216252431 2.8905978590905614 -6 -4 0
322 1 0 -7.297047902562951 -3.7950225790311487 2.8026827177990596 -7 2 -3
485 1 0 -5.324736717668313 -4.2876493105591935 2.0162149832837124 3 -3 2
4615 1 0 -6.3646975932962775 -3.3615201900698133 1.4275648340576637 7 0 -6
723 1 0 -5.66891707187706 -4.07353500921984 3.1099771632555213 -3 -5 3
3596 1 0 -4.66476877910075 -3.7399624039394466 2.8233092317264425 -2 -4 -1
1280 1 0 -4.410866459142973 -4.484441082417446 1.5482928521175363 0 -3 -3
4323 1 0 -3.278971675176036 -4.148444350659565 1.8175939544648865 1 -4 -9
583 1 0 -4.547764954342498 -4.944648608441084 2.542479749772951 -7 -2 -8
3960 1 0 -3.8551145327631646 -3.4236958258481467 2.2423173985629927 6 -2 -6
665 1 0 -3.548171478411425 -4.483187164166456 3.0523951381107275 -1 0 -1
4012 1 0 -8.510800395792746 -9.28434259121183 4.082710156005662 0 6 2
4540 1 0 -8.830252623285036 -8.237472541789257 4.470667459205508 -1 2 4
4916 1 0 -7.548690916805545 -8.549269224312116 4.826563020665223 3 2 1
4115 1 0 -8.715532144375201 -7.801946291151433 3.5858191130377848 5 -4 -2
1746 1 0 -8.42481614599472 -9.013713910999902 5.2810984596147215 5 -4 -2
2691 1 0 -7.753285282333625 -8.265185167964205 3.9393213653269106 8 8 5
731 1 0 -7.851077359825729 -7.628661121340703 5.093424036847831 1 8 -1
3658 1 0 -9.365635345695223 -9.107358768241976 4.7160563071372295 -2 4 -8
4893 1 0 -6.502909079827661 -8.690680478515882 4.683086973989058 7 -1 -6
4081 1 0 -5.709052805944978 -9.339564503609024 4.7915755587317905 0 2 -4
2485 1 0 -5.713939369213492 -7.971856552041378 4.3477241302995155 -8 -3 5
1112 1 0 -7.31773227516542 -9.345559510703538 3.4930727338955174 8 -3 -3
631 1 0 -6.19432371814055 -9.12811906858992 3.4527364828505775 -4 4 1
3813 1 0 -7.126776134578939 -7.548997281536021 4.341788188932278 11 14 2