LAMMPS data file via write_data, version 28 Oct 2021, timestep = 302000

1518 atoms
11 atom types
1000 bonds
1 bond types
500 angles
1 angle types

-12.491623660253255 12.491623660253255 xlo xhi
-12.491623660253255 12.491623660253255 ylo yhi
-12.491623660253255 12.491623660253255 zlo zhi

Masses

1 15.9994
2 1.00794
3 22.989769
4 35.453
5 60
6 60
7 60
8 15.9994
9 1.00794
10 22.989769
11 35.453

PairIJ Coeffs # lj/cut/coul/long

1 1 0.155354 3.169 9
1 2 0 0 9
1 3 0.234061 2.66425 9
1 4 0.044567 3.99975 9
1 5 0 0 9
1 6 0 0 9
1 7 0 0 9
1 8 0 0 9
1 9 0 0 9
1 10 0 0 9
1 11 0 0 9
2 2 0 0 9
2 3 0 1.07975 9
2 4 0 2.41525 9
2 5 0 0 9
2 6 0 0 9
2 7 0 0 9
2 8 0 0 9
2 9 0 0 9
2 10 0 0 9
2 11 0 0 9
3 3 0.352644 2.1595 9
3 4 0.067146 3.495 9
3 5 0 0 9
3 6 0 0 9
3 7 0 0 9
3 8 0 0 9
3 9 0 0 9
3 10 0 0 9
3 11 0 0 9
4 4 0.0127851 4.8305 9
4 5 0 0 9
4 6 0 0 9
4 7 0 0 9
4 8 0 0 9
4 9 0 0 9
4 10 0 0 9
4 11 0 0 9
5 5 0 0 9
5 6 0 0 9
5 7 0 0 9
5 8 0 0 9
5 9 0 0 9
5 10 0 0 9
5 11 0 0 9
6 6 0 0 9
6 7 0 0 9
6 8 0 0 9
6 9 0 0 9
6 10 0 0 9
6 11 0 0 9
7 7 0 0 9
7 8 0 0 9
7 9 0 0 9
7 10 0 0 9
7 11 0 0 9
8 8 0 0 9
8 9 0 0 9
8 10 0 0 9
8 11 0 0 9
9 9 0 0 9
9 10 0 0 9
9 11 0 0 9
10 10 0 0 9
10 11 0 0 9
11 11 0 0 9

Bond Coeffs # harmonic

1 100000 1

Angle Coeffs # harmonic

1 100000 109.47

Atoms # full

1516 0 4 -1 -12.27261329957893 -10.271090982393472 -10.709458248165983 -8 -4 -5
536 179 2 0.4238 -8.286356588914217 -9.728680456385913 -10.885393341462589 4 -8 23
537 179 2 0.4238 -9.885903638693295 -9.935162894169842 -10.629341406014614 4 -8 23
711 237 2 0.4238 -8.38809535021841 -7.193993739767764 -8.783594250329827 -16 17 14
1471 491 1 -0.8476 -9.703393374483252 -10.378641991642208 -6.899217862681514 2 0 -13
1472 491 2 0.4238 -9.491178993276531 -10.031090579078459 -7.8125736428988075 2 0 -13
1498 500 1 -0.8476 -6.805190115371064 -11.517543980870162 -8.54594922134386 -7 15 -4
710 237 2 0.4238 -8.71189253141875 -7.51075674161482 -7.214656762136701 -16 17 14
1500 500 2 0.4238 -6.837613072040502 -11.144156525646315 -7.618815914696317 -7 15 -4
1473 491 2 0.4238 -10.264101846425495 -9.710381396212446 -6.410259554385265 2 0 -13
1499 500 2 0.4238 -7.730714879727799 -11.554725365994484 -8.922867616554438 -7 15 -4
1198 400 1 -0.8476 -11.810970278999584 -12.304018447370305 -6.62695761832735 -3 20 -12
535 179 1 -0.8476 -8.97033035857086 -10.226983576779253 -10.352552129997912 4 -8 23
709 237 1 -0.8476 -9.004270218007516 -7.671683589544619 -8.15734625552791 -16 17 14
1458 486 2 0.4238 -10.83756969597202 -8.103891942780464 -8.77680176879664 -1 -13 20
611 204 2 0.4238 -11.872342699490495 -8.279342886003914 -6.58424782347042 8 9 -6
1176 392 2 0.4238 -11.388611571337389 -12.142171869350358 -9.904887904963582 -8 -6 -9
1456 486 1 -0.8476 -11.728830594357895 -8.41295083261205 -8.444864393038618 -1 -13 20
1229 410 2 0.4238 -8.713346408034278 -11.851116411465096 -11.934266437722263 15 -1 9
349 117 1 -0.8476 -10.900072139139398 -7.869842024326705 -12.432704378026507 2 -3 1
1199 400 2 0.4238 -11.379084225857042 -11.429456890111666 -6.847553743865274 -3 20 -12
351 117 2 0.4238 -11.321842358356239 -8.55416559986045 -11.837845169160092 2 -3 1
1457 486 2 0.4238 -12.095289585947954 -9.10394072958073 -9.0679910602713 -1 -13 20
616 206 1 -0.8476 -7.424764995257021 -8.038019257904152 -11.76581768492829 -5 5 -10
618 206 2 0.4238 -8.232155307583522 -7.453215039997867 -11.687265664794223 -5 5 -10
150 50 2 0.4238 -3.5307008034626985 -7.885029534408046 -8.588464491554912 -6 -3 -4
1413 471 2 0.4238 -2.6379516571614072 -11.30690476807566 -8.486811783597428 -17 -3 -7
1411 471 1 -0.8476 -2.142767160308388 -11.690446929023807 -9.266384320145923 -17 -3 -7
77 26 2 0.4238 -0.775545988094759 -6.9428449851051015 -8.757783767512638 15 3 -5
312 104 2 0.4238 -1.7562869442642537 -8.076252668643132 -11.419238377842058 -2 -2 -6
310 104 1 -0.8476 -1.0322332278896198 -8.414566813896048 -10.818126267401901 -2 -2 -6
149 50 2 0.4238 -2.2889725716675713 -8.14899283943854 -9.61568515871458 -6 -3 -4
641 214 2 0.4238 -3.438394007907073 -12.119178877132553 -12.028540338350483 -12 2 6
311 104 2 0.4238 -0.14105763805974547 -8.224776490276454 -11.23023266041505 -2 -2 -6
148 50 1 -0.8476 -2.6634064730731737 -7.523709958554937 -8.93094698110976 -6 -3 -4
640 214 1 -0.8476 -2.5016821562167078 -12.383533378538724 -12.258177612535196 -12 2 6
6 2 2 0.4238 -2.2957229954104648 -10.956869898194366 -6.710588657443041 -11 18 -5
1412 471 2 0.4238 -1.1585907569978886 -11.608675908704775 -9.109044360059036 -17 -3 -7
1127 376 2 0.4238 -3.908123420604598 -7.616359794803539 -12.062452291737115 15 -3 15
1011 337 2 0.4238 -5.53928802015456 -10.339746838000138 -9.002772887776516 0 3 9
1009 337 1 -0.8476 -4.812037428618631 -9.704874524083447 -8.741832682936732 0 3 9
642 214 2 0.4238 -1.8647254020542583 -11.927253386057194 -11.63677569413695 -12 2 6
1010 337 2 0.4238 -4.175907166600007 -10.16355897482849 -8.121354372922193 0 3 9
768 256 2 0.4238 -5.655906758555892 -6.5158509586867535 -9.44336065784726 4 -3 8
448 150 1 -0.8476 -0.8125340150418481 -10.97421742034868 -6.278428979745775 -15 -20 0
4 2 1 -0.8476 -3.2707458790780084 -10.96301180474706 -6.932711243478589 -11 18 -5
791 264 2 0.4238 -0.011807423094255753 -9.118571360375853 -9.445973515952389 2 13 21
1464 488 2 0.4238 -4.949047579068146 -8.521944096727445 -10.069535134710634 17 -7 -4
1462 488 1 -0.8476 -5.07085871989315 -7.893033025810584 -10.837440396363721 17 -7 -4
1463 488 2 0.4238 -5.989655549671577 -8.003697078194334 -11.216401758574987 17 -7 -4
61 21 1 -0.8476 -6.62783557339047 -3.077082332740119 -10.394783192520126 -2 -16 4
99 33 2 0.4238 -11.87326850608408 -0.046451325637999474 -11.530572675704084 10 7 -8
828 276 2 0.4238 -9.646100625163433 -0.24709257515688066 -6.443745685251651 8 0 -8
62 21 2 0.4238 -6.255244368606204 -2.317027866282791 -9.862299541930625 -2 -16 4
56 19 2 0.4238 -8.244836958271728 -2.2955516746662123 -9.107708666090375 3 5 9
1106 369 2 0.4238 -10.35887339508336 -1.7349495722159833 -11.857382484224717 -4 4 2
1315 439 1 -0.8476 -8.78486722161821 -5.81334268109798 -10.310096237081618 -3 4 6
1316 439 2 0.4238 -9.111592599931079 -5.1700002101284985 -9.617704298635033 -3 4 6
1317 439 2 0.4238 -9.16770638332494 -5.567473258449281 -11.200617567816737 -3 4 6
777 259 2 0.4238 -10.600727355668628 -4.544476016419095 -7.113008567283153 13 -1 23
57 19 2 0.4238 -9.359180995925858 -2.7043675982632553 -7.986167151892965 3 5 9
55 19 1 -0.8476 -9.018570074337365 -1.9651218312953507 -8.567154420267864 3 5 9
766 256 1 -0.8476 -6.342226280647223 -5.952596544272621 -8.983191192005734 4 -3 8
795 265 2 0.4238 -10.37201466176884 -1.6798952463862697 -9.561924392749189 -7 23 -4
767 256 2 0.4238 -7.000187182592258 -5.613266508445054 -9.655492138277518 4 -3 8
793 265 1 -0.8476 -11.051598773598188 -1.3742687892175116 -10.2288605421231 -7 23 -4
794 265 2 0.4238 -11.929120683987412 -1.2340514670354477 -9.770232065218078 -7 23 -4
775 259 1 -0.8476 -9.94043110776568 -4.492402821737355 -7.862237009225235 13 -1 23
776 259 2 0.4238 -9.373411748048886 -5.3161314564331095 -7.864668781744852 13 -1 23
765 255 2 0.4238 -9.053393744691755 -0.14752272062889027 -9.052065602034395 18 -10 -2
1002 334 2 0.4238 -8.392506980708838 -1.386452003621967 -12.463778581463842 3 -10 -26
1001 334 2 0.4238 -7.134784893395483 -1.7453910307316978 -11.486002530333057 3 -10 -26
1000 334 1 -0.8476 -7.544132367916869 -1.0393865805838693 -12.06396320462395 3 -10 -26
13 5 1 -0.8476 -5.182864518410652 -5.497548924065148 -6.35255011667017 22 -19 -12
739 247 1 -0.8476 -5.66587902114477 -1.2891868461682172 -8.304125065679653 21 -11 7
1446 482 2 0.4238 -0.044743638864297 -0.7156206779648429 -8.79723110293498 0 -9 5
15 5 2 0.4238 -5.659271634557287 -5.612128105225176 -7.224303298494604 22 -19 -12
1444 482 1 -0.8476 -0.7025976070025326 -0.03037285031588688 -9.10981591600074 0 -9 5
574 192 1 -0.8476 -3.764833424269554 -0.6086007982001345 -12.167484166207931 0 5 -5
1445 482 2 0.4238 -1.6307825512020635 -0.3426479564217608 -8.90732420247246 0 -9 5
1406 469 2 0.4238 -0.6226669327333063 -2.5274707583134273 -11.878211224251295 4 -2 -8
340 114 1 -0.8476 -2.600817722706683 -5.124097073801818 -10.455724730703084 0 5 4
341 114 2 0.4238 -1.9744375880207858 -5.317346977366022 -11.210938648961738 0 5 4
342 114 2 0.4238 -2.551220373558799 -5.863321613533907 -9.784060476795828 0 5 4
576 192 2 0.4238 -3.7454204850126853 -1.6083822994543038 -12.177774642168758 0 5 -5
575 192 2 0.4238 -4.710675975296262 -0.2927887038560044 -12.242918772519932 0 5 -5
741 247 2 0.4238 -5.586838691374897 -0.6448747095933545 -7.543427920178849 21 -11 7
740 247 2 0.4238 -4.99355717374757 -2.0209872020192226 -8.192334189491223 21 -11 7
918 306 2 0.4238 -1.241887632497459 -2.9034295848601683 -7.363691292591496 -12 -2 3
916 306 1 -0.8476 -0.44178454747680895 -2.482359022798221 -6.936397202716544 -12 -2 3
1057 353 1 -0.8476 -4.360395714222568 -3.366800820099469 -11.87317795829335 1 -18 16
1059 353 2 0.4238 -3.7714703792011086 -4.036699013313646 -11.421016406381652 1 -18 16
564 188 2 0.4238 -3.637939530472199 -4.297080844756266 -7.336272691055353 6 -15 -7
562 188 1 -0.8476 -3.178631344258859 -3.7246645605636193 -8.01555281633636 6 -15 -7
563 188 2 0.4238 -3.1479828739554794 -4.206308898387752 -8.891409701737407 6 -15 -7
63 21 2 0.4238 -5.987036774646972 -3.319397042215087 -11.123279214046955 -2 -16 4
331 111 1 -0.8476 -6.875863191165026 -8.569996411066166 -4.64272484903384 -11 2 -7
1094 365 2 0.4238 -11.401535322709126 -11.535754399638009 -2.344180961887771 8 -7 11
1428 476 2 0.4238 -9.80848784543226 -6.67184897925956 -5.267016065132045 -3 11 -16
332 111 2 0.4238 -6.7283075413045745 -8.368381212487572 -3.674414620168564 -11 2 -7
1095 365 2 0.4238 -11.461640247373705 -12.026777489097968 -3.9004688048043707 8 -7 11
1093 365 1 -0.8476 -11.584227627677663 -12.310573493852429 -2.949428374749516 8 -7 11
1426 476 1 -0.8476 -8.889674477595015 -6.826987176006176 -5.630003514068391 -3 11 -16
854 285 2 0.4238 -10.007329947952083 -9.254087959983856 -1.0184262686945793 15 7 -19
855 285 2 0.4238 -10.202984811379066 -10.610720195357658 -0.1307227234332018 15 7 -19
610 204 1 -0.8476 -11.740704782222554 -8.889956558699273 -5.803307193993066 8 9 -6
612 204 2 0.4238 -11.520598873340672 -8.349644060937043 -4.99111169916887 8 9 -6
333 111 2 0.4238 -7.741497406839832 -8.166396145699647 -4.939087357142576 -11 2 -7
1249 417 1 -0.8476 -11.359194558684685 -6.303033876622452 -4.543891183905066 -5 19 12
1447 483 1 -0.8476 -7.389889518223729 -10.997451218595945 -5.7224656881727345 10 -5 10
853 285 1 -0.8476 -10.235140759924002 -10.22717743619883 -1.0537108938638493 15 7 -19
1449 483 2 0.4238 -7.159187445782102 -10.078663946639507 -5.4020714372179395 10 -5 10
1448 483 2 0.4238 -8.359709407333177 -11.03255446934125 -5.96384375029065 10 -5 10
1053 351 2 0.4238 -6.994776249429277 -11.887020301257339 -4.073000616579256 -1 11 -21
1051 351 1 -0.8476 -6.81107097995682 -11.649756934249162 -3.1190592444794145 -1 11 -21
1052 351 2 0.4238 -6.476635736541084 -10.708692643584401 -3.0681013873513816 -1 11 -21
1274 425 2 0.4238 -9.332485479228907 -11.825926356508292 -1.2225202021662227 2 13 -10
1102 368 1 -0.8476 -10.043413128599127 -7.3286146985506635 -1.6953913028014647 14 -6 8
1104 368 2 0.4238 -9.589660935814972 -7.378530217210677 -0.805636672180599 14 -6 8
1275 425 2 0.4238 -7.96426201414236 -12.042969852261077 -2.0871617023531304 2 13 -10
667 223 1 -0.8476 -12.44458122114596 -8.470527292864382 -2.308842404148665 2 -13 -9
668 223 2 0.4238 -11.50481037162269 -8.165797740532286 -2.153870506831897 2 -13 -9
1103 368 2 0.4238 -10.527370296744476 -6.457062951539961 -1.7743203998241412 14 -6 8
449 150 2 0.4238 -0.7573981893032506 -11.861313056671667 -5.820097420693611 -15 -20 0
1319 440 2 0.4238 -2.2938733808019265 -10.35455359000866 -0.4951466116573897 -9 14 7
5 2 2 0.4238 -3.784865003890758 -10.536741767643871 -6.188385281015007 -11 18 -5
465 155 2 0.4238 -5.295211362427277 -9.414068473983122 -4.864974868843178 29 -13 -16
1402 468 1 -0.8476 -2.6633981048383184 -7.2879738880711535 -5.704681075089308 -6 -6 14
1055 352 2 0.4238 -5.162182387358748 -8.623751787703927 -2.232518242377642 10 9 6
1404 468 2 0.4238 -3.281786086342761 -6.516908541755903 -5.856669716759353 -6 -6 14
1080 360 2 0.4238 -1.1684514613003358 -7.2249517899425655 -5.450067281945373 15 -9 3
1278 426 2 0.4238 -6.078408456253598 -6.409984562986384 -1.8606751108528474 -12 -7 0
1078 360 1 -0.8476 -0.18435894804975028 -7.056438579130581 -5.393402948311638 15 -9 3
464 155 2 0.4238 -4.069869414879864 -9.467111867644917 -3.786794360654591 29 -13 -16
1403 468 2 0.4238 -3.1817980602667166 -8.066100299929388 -5.349959208702677 -6 -6 14
463 155 1 -0.8476 -4.323473908230435 -9.616046868425782 -4.742592358663326 29 -13 -16
1054 352 1 -0.8476 -6.11483976044065 -8.629273787501138 -1.9284461830178596 10 9 6
1056 352 2 0.4238 -6.162670095930465 -8.966486330048886 -0.9882087563077917 10 9 6
951 317 2 0.4238 -2.9015365394498165 -8.99215299564382 -1.729945141688539 -11 9 -10
949 317 1 -0.8476 -3.501937766290805 -8.448092741303629 -2.3160877124274943 -11 9 -10
950 317 2 0.4238 -3.302164055240116 -7.476671479207915 -2.187723785582717 -11 9 -10
758 253 2 0.4238 -0.458161506112404 -10.651419656853077 -1.8118999186048192 2 -8 4
757 253 1 -0.8476 -1.0968253920641846 -9.955357470134986 -1.4837969569321494 2 -8 4
759 253 2 0.4238 -0.694765035977742 -9.048373633932899 -1.609389659195017 2 -8 4
826 276 1 -0.8476 -9.639634684379203 -0.33433957058572084 -5.447556974864989 8 0 -8
827 276 2 0.4238 -10.566811602266652 -0.20565124963018633 -5.095664693367329 8 0 -8
883 295 1 -0.8476 -7.177845236938916 -4.751556964741301 -4.503118005264969 -4 -6 16
885 295 2 0.4238 -7.7986058937274585 -4.112167198027391 -4.049374161892549 -4 -6 16
1427 476 2 0.4238 -8.29884734867117 -6.059636168831911 -5.3807217881513925 -3 11 -16
1250 417 2 0.4238 -11.750233933618075 -5.551033034049261 -5.074577995019518 -5 19 12
1385 462 2 0.4238 -7.4575211903900245 -1.6286295719297286 -3.541290792884043 -14 3 -6
1384 462 1 -0.8476 -8.26322554805838 -2.1385191234499796 -3.8427868311204776 -14 3 -6
1386 462 2 0.4238 -8.773389042741885 -1.5929413160273924 -4.507711036463633 -14 3 -6
1251 417 2 0.4238 -11.55216417662871 -6.161429446185098 -3.572934594685691 -5 19 12
884 295 2 0.4238 -6.721254347117197 -5.31703694788377 -3.8162386150723595 -4 -6 16
313 105 1 -0.8476 -11.531913370059295 -4.784392247407715 -1.953428453425067 11 -16 18
315 105 2 0.4238 -11.080904085199387 -3.891850178040933 -1.955725145326669 11 -16 18
314 105 2 0.4238 -12.358983006708975 -4.738484660294694 -1.393166118481906 11 -16 18
747 249 2 0.4238 -9.189079400248325 -2.7417075367190407 -0.5209978525161674 -1 -5 -5
1460 487 2 0.4238 -12.34487053105014 -3.2705599619447003 -3.8497263920346185 -3 10 8
903 301 2 0.4238 -10.64323236196082 -1.6914931146518555 -1.7033347724338803 9 15 -1
902 301 2 0.4238 -9.55861741012965 -2.4641134874731687 -2.6485423431636637 9 15 -1
901 301 1 -0.8476 -10.204854386744902 -2.5701191032481976 -1.8927734882771965 9 15 -1
478 160 1 -0.8476 -12.180536875929379 -0.6391876967045178 -1.2887025711753353 14 9 -9
479 160 2 0.4238 -12.226808097054102 -0.30847806022590163 -2.2313242803079394 14 9 -9
1152 384 2 0.4238 -2.4662407132505457 -0.014142249308541466 -2.9663606729019243 1 6 12
701 234 2 0.4238 -1.231462474918363 -1.5926848525552977 -5.459571712689494 14 -10 -13
14 5 2 0.4238 -5.795630294127753 -5.063044163187277 -5.692421643361589 22 -19 -12
700 234 1 -0.8476 -1.4254425793562024 -0.9006184432900746 -4.764257648935895 14 -10 -13
873 291 2 0.4238 -0.5920785993176256 -3.9452204681855747 -0.08332509641457975 -6 8 15
702 234 2 0.4238 -1.8299706806246565 -0.09585663358793717 -5.198724535272849 14 -10 -13
871 291 1 -0.8476 -1.398241302510078 -3.5100018237513364 -0.4842401168262871 -6 8 15
872 291 2 0.4238 -1.2379627635872232 -3.3434916743530376 -1.457189805296716 -6 8 15
1242 414 2 0.4238 -5.3228952173210295 -2.181876898720578 -3.3406022992624056 -5 0 0
1240 414 1 -0.8476 -5.737411430760343 -1.3923203624930771 -2.8880288131168346 -5 0 0
1241 414 2 0.4238 -5.017558748905753 -0.7924970463398857 -2.5386408751936944 -5 0 0
1322 441 2 0.4238 -1.6018324809509377 -5.606593115555679 -2.139502721888382 8 -18 -10
1276 426 1 -0.8476 -6.1024641486613485 -5.4513908425089 -2.144515235988729 -12 -7 0
1277 426 2 0.4238 -6.1354884249514345 -4.864863719881143 -1.335230721867342 -12 -7 0
1296 432 2 0.4238 -4.679240324191886 -4.120619266287649 -2.666405178958886 5 0 -19
1294 432 1 -0.8476 -4.145117277299933 -3.5625298354831383 -3.3014597500728 5 0 -19
1295 432 2 0.4238 -4.3377188361820185 -3.8489418360011403 -4.240032308289376 5 0 -19
1343 448 2 0.4238 -2.3728207716690584 -3.595954380677364 -3.034387270409489 -8 13 1
1344 448 2 0.4238 -1.5137397865973465 -2.4830260055298705 -3.8651208331694242 -8 13 1
1342 448 1 -0.8476 -1.4672270898710789 -3.1908509830793665 -3.1602334938929744 -8 13 1
1321 441 1 -0.8476 -2.4990538189621105 -6.013938745297458 -1.9688877841432912 8 -18 -10
1323 441 2 0.4238 -2.9728020529541457 -5.491724390984867 -1.2597326104882338 8 -18 -10
999 333 2 0.4238 -9.943051466377558 -11.020007764718796 2.2294494293939717 16 8 1
470 157 2 0.4238 -10.494947223544154 -9.87573267863812 4.825328075070006 3 -5 -7
997 333 1 -0.8476 -10.193548067820299 -11.533076181745809 1.4084391681215624 16 8 1
471 157 2 0.4238 -9.324920723058566 -8.73858436835298 4.893736334080804 3 -5 -7
469 157 1 -0.8476 -10.308198414256637 -8.893680419195956 4.7980501680909935 3 -5 -7
209 70 2 0.4238 -11.752052599807767 -12.092662838293345 5.366142857574532 8 16 9
208 70 1 -0.8476 -11.10086557954749 -11.494971548865754 4.898417959889956 8 16 9
1201 401 1 -0.8476 -8.615309088842931 -12.134462142674124 4.2959474588409154 0 4 4
210 70 2 0.4238 -10.206892995111302 -11.94147855531067 4.859809211608161 8 16 9
1202 401 2 0.4238 -8.217398052898679 -11.221944257822758 4.390940766529118 0 4 4
1046 349 2 0.4238 -12.472829778266155 -6.615892656287692 2.0849366228030526 -3 -2 -1
693 231 2 0.4238 -11.910731080095372 -11.723462754886135 1.6210318074547505 9 -9 -6
165 55 2 0.4238 -6.543600894901537 -9.570806316317787 5.28672251797534 -7 -3 -2
164 55 2 0.4238 -7.441442081675638 -9.273360189437295 3.95549900718437 -7 -3 -2
163 55 1 -0.8476 -7.467593652065978 -9.587295943419182 4.904607067614512 -7 -3 -2
1433 478 2 0.4238 -10.194656470689697 -6.283283623273697 3.1769837847321636 3 -14 8
1432 478 1 -0.8476 -10.967812706722041 -6.889067769702649 2.9890972348007505 3 -14 8
1434 478 2 0.4238 -10.979497194668182 -7.6319876578654 3.6584100465672993 3 -14 8
1248 416 2 0.4238 -11.823392144478301 -8.343042420905014 5.768354064532906 -7 3 6
1021 341 1 -0.8476 -6.743334951240823 -8.185629110588348 2.4554239166644063 13 10 18
1132 378 1 -0.8476 -9.01082466878123 -7.786994002804032 0.8046347701760688 -4 6 -18
1133 378 2 0.4238 -9.675384062884616 -7.509851321757652 1.4986076780381001 -4 6 -18
1134 378 2 0.4238 -8.11868242283099 -7.926506740757601 1.2343609381846292 -4 6 -18
1383 461 2 0.4238 -3.76667962439001 -12.46131341259348 4.855430234598183 3 4 -18
716 239 2 0.4238 -1.0876458357222099 -6.347085652052602 2.067764690601617 6 2 4
235 79 1 -0.8476 -0.6160171875230027 -9.519442105242629 3.9479186881704056 7 -9 -4
1066 356 1 -0.8476 -1.5393421983943991 -6.6777974651946534 6.054936236354818 0 5 -9
236 79 2 0.4238 -1.4463682416735608 -9.006119925358053 3.7309784059883615 7 -9 -4
753 251 2 0.4238 -4.48977747929732 -9.302476988709785 5.936180772222988 18 -5 -1
751 251 1 -0.8476 -4.837549258354058 -8.757811790716689 5.173002805065492 18 -5 -1
752 251 2 0.4238 -5.15698483816977 -7.873297521423111 5.513063017959796 18 -5 -1
1023 341 2 0.4238 -6.2362927877271215 -7.365795118544355 2.7215555855554623 13 10 18
1022 341 2 0.4238 -6.106647509561483 -8.94772003208177 2.3375587090413585 13 10 18
626 209 2 0.4238 -4.551227920966185 -10.435179676202173 0.399305109205887 9 17 -9
1375 459 1 -0.8476 -2.9521432952303535 -7.60815895897145 3.433422528392155 -7 5 -6
1377 459 2 0.4238 -2.7253089693499586 -6.884054459972992 4.084778512021407 -7 5 -6
1376 459 2 0.4238 -3.6983424556130284 -8.164149584755002 3.7996285356802186 -7 5 -6
237 79 2 0.4238 -0.010688595575835791 -9.526012486698972 3.1519413241575496 7 -9 -4
625 209 1 -0.8476 -5.382667776619915 -10.366865839165191 0.9507457544896099 9 17 -9
627 209 2 0.4238 -5.607276634935877 -11.265405289897318 1.3278709039855112 9 17 -9
1318 440 1 -0.8476 -2.7453011719576814 -10.761540427373387 0.2989694845865021 -9 14 7
1320 440 2 0.4238 -2.089934080369593 -11.324203647532704 0.8029041578491416 -9 14 7
1485 495 2 0.4238 -0.8530641237476662 -11.370796216192748 4.391621990552624 -4 -12 5
1483 495 1 -0.8476 -1.0692690894035906 -12.343397759121055 4.477343215476607 -4 -12 5
271 91 1 -0.8476 -7.426228707791253 -1.2078667887967764 5.510970857881228 0 16 -10
272 91 2 0.4238 -8.424255149465072 -1.2245484514813167 5.450056745839609 0 16 -10
957 319 2 0.4238 -10.079547043674605 -3.698010235616911 5.763995462176476 -10 26 -12
955 319 1 -0.8476 -9.745657903062183 -4.593764614321905 6.057573878228746 -10 26 -12
499 167 1 -0.8476 -8.523979342985996 -5.42030689810973 3.7500132960097563 -16 15 11
1331 444 2 0.4238 -9.822718613423808 -4.313349511119213 3.005921824025524 3 2 25
507 169 2 0.4238 -6.289859102520734 -2.456961870439855 1.6790732322792792 4 -11 13
1330 444 1 -0.8476 -10.398954581397415 -3.5848889336424463 2.6353236503358755 3 2 25
273 91 2 0.4238 -7.0393500706724605 -1.8044111935546425 4.8077601082049615 0 16 -10
806 269 2 0.4238 -7.295218624359974 -3.8783695688878854 0.23824006698943556 1 5 20
805 269 1 -0.8476 -6.4275531622081585 -4.368636721018154 0.32095252168852006 1 5 20
807 269 2 0.4238 -6.410619392715366 -4.872893687826521 1.1843668461571397 1 5 20
501 167 2 0.4238 -8.800246389689853 -5.355053339185518 4.708900230442859 -16 15 11
500 167 2 0.4238 -7.527428292029231 -5.481614893289652 3.6936838565820462 -16 15 11
1512 0 4 -1 -11.109311318394038 -1.8964543590437923 5.2409742182368735 6 -2 -6
938 313 2 0.4238 -12.389658359617226 -1.2086326337046174 3.415469279225368 20 15 -25
732 244 2 0.4238 -8.349512632539515 -0.3870504290671004 0.3659098399962559 -10 -3 -16
358 120 1 -0.8476 -12.297860378719337 -3.9750327646363246 0.6328845659940363 11 -17 3
746 249 2 0.4238 -9.35726963729309 -2.7918581351398988 1.1025614680659714 -1 -5 -5
359 120 2 0.4238 -11.403606377754185 -3.8598969809235797 1.0654343346154285 11 -17 3
745 249 1 -0.8476 -8.728292967542874 -2.9508648661680876 0.34154185054864605 -1 -5 -5
1332 444 2 0.4238 -10.72380189036639 -3.004400093985076 3.3820183459579773 3 2 25
715 239 1 -0.8476 -1.1782096690793065 -5.366334440627939 2.240885643800002 6 2 4
717 239 2 0.4238 -0.36564725438632983 -4.89169855854571 1.9024940054334145 6 2 4
227 76 2 0.4238 -2.6066596184114257 -0.8246473812424302 0.5793909337446745 17 14 -9
196 66 1 -0.8476 -0.021649205447541675 -2.152630739938811 4.416261184733573 11 21 13
226 76 1 -0.8476 -2.6854349977393035 -1.7175183927450206 1.0228111832540385 17 14 -9
228 76 2 0.4238 -2.3503375857173605 -2.427833485458084 0.40377328866566664 17 14 -9
506 169 2 0.4238 -5.1307569416872525 -2.5389959720059974 2.8264620692696596 4 -11 13
505 169 1 -0.8476 -6.028879089703581 -2.162859064118642 2.598550744757995 4 -11 13
197 66 2 0.4238 -0.9663124616679468 -2.25947347267234 4.106032601621328 11 21 13
188 63 2 0.4238 -1.9918492840605548 -4.651196108540663 3.5112373964796095 5 9 -10
1067 356 2 0.4238 -1.6964383861212156 -5.938749683595366 5.399821342344149 0 5 -9
189 63 2 0.4238 -2.5528314397920813 -3.5152133835164303 4.541573050168177 5 9 -10
187 63 1 -0.8476 -2.3664675664232 -4.4907114172086455 4.424446969321645 5 9 -10
1439 480 2 0.4238 -0.8076017561267044 -1.0751065250289535 1.029299491349473 -31 6 -7
452 151 2 0.4238 -5.312709981485981 -5.281659200727017 4.416258144617872 15 28 5
451 151 1 -0.8476 -5.527757669319415 -5.6935182344803295 3.5307229220375813 15 28 5
742 248 1 -0.8476 -3.865103774165817 -4.415404255384447 1.8727318512777433 -8 -1 4
453 151 2 0.4238 -4.957700693470422 -5.277321195392029 2.8223012983162583 15 28 5
744 248 2 0.4238 -4.108913642799166 -4.51116921972292 0.9076248169434766 -8 -1 4
723 241 2 0.4238 -5.6638858943160715 -0.257128766152805 3.327066498538276 -22 5 14
880 294 1 -0.8476 -4.198930614691967 -0.31543494526692406 5.714365682892856 -2 -7 7
743 248 2 0.4238 -2.869709080434971 -4.3839162967787 1.9635257302034859 -8 -1 4
881 294 2 0.4238 -5.164542552519906 -0.5705718811073517 5.764806953110858 -2 -7 7
516 172 2 0.4238 -2.3004198426070896 -0.11875947499178885 6.118802896843016 0 -3 -2
673 225 1 -0.8476 -2.817467722541366 -1.9805740793013626 4.1354386376576375 13 10 6
675 225 2 0.4238 -3.2134246426499864 -1.3643114730165244 4.816235376753683 13 10 6
674 225 2 0.4238 -3.078104452619952 -1.6766034094812383 3.219078495631555 13 10 6
988 330 1 -0.8476 -9.110807420864859 -7.983598881632579 9.498603463323475 5 4 -11
989 330 2 0.4238 -9.96735412715678 -8.47061845916432 9.669445090687175 5 4 -11
1156 386 1 -0.8476 -10.836003181689868 -10.332250151984137 9.054945089139936 16 -22 3
990 330 2 0.4238 -8.437610187135052 -8.617025272571594 9.116998577356158 5 4 -11
1158 386 2 0.4238 -11.376942611662832 -10.712670498617104 8.304804642020207 16 -22 3
410 137 2 0.4238 -8.55710540157159 -6.3343151174014185 10.299264129439491 -5 -13 -6
1157 386 2 0.4238 -9.968522706962045 -10.825002759665761 9.123634803107178 16 -22 3
946 316 1 -0.8476 -7.343479062107162 -9.901808093128727 8.476381686363355 -15 19 -2
1140 380 2 0.4238 -6.318817446861498 -9.026477786659314 9.762113000548455 1 -8 -3
174 58 2 0.4238 -12.321141125891607 -11.562244327229752 12.110380771858745 -2 12 11
617 206 2 0.4238 -7.272610313234334 -8.268845055211571 12.256381288452234 -5 5 -11
947 316 2 0.4238 -7.759863616182478 -9.77104302739363 7.5766200081322435 -15 19 -2
948 316 2 0.4238 -7.812136529962074 -10.643745577422527 8.95589726330162 -15 19 -2
173 58 2 0.4238 -11.651809376761607 -11.652202553708179 10.62355489391834 -2 12 11
1247 416 2 0.4238 -12.394750717694833 -7.285106703691081 6.873374080374633 -7 3 6
172 58 1 -0.8476 -12.06490290821481 -12.179243745487293 11.366270915564362 -2 12 11
1292 431 2 0.4238 -11.829456437953505 -8.86776409665655 9.445254769020762 -8 -6 1
1228 410 1 -0.8476 -8.452620145478008 -12.383395453071152 12.243532860184937 15 -1 8
1291 431 1 -0.8476 -12.00622935634376 -8.089980830312072 10.048454739389486 -8 -6 1
532 178 1 -0.8476 -8.823464889081142 -12.029370958852088 9.742745920535386 -9 1 -7
533 178 2 0.4238 -8.77065791313162 -12.207170222746969 10.725418055935693 -9 1 -7
350 117 2 0.4238 -11.187490764410276 -8.026938655223162 11.605684694202983 2 -3 0
844 282 1 -0.8476 -5.6046501542922735 -6.497067031250607 6.466642373948565 -2 1 5
305 102 2 0.4238 -4.07214928359962 -6.578669281999485 9.11554813051315 8 -14 -1
845 282 2 0.4238 -4.706226360674199 -6.270406263182125 6.8428150536764125 -2 1 5
670 224 1 -0.8476 -2.031196314859155 -11.7745500842078 7.587403987130829 3 5 20
964 322 1 -0.8476 -4.097884960551523 -10.339847096861927 7.137189823055115 7 -1 -8
966 322 2 0.4238 -3.261954577172286 -10.86521546180659 7.296106429154483 7 -1 -8
306 102 2 0.4238 -4.962732086175339 -7.390718431120376 10.21744958750916 8 -14 -1
965 322 2 0.4238 -4.887801135183856 -10.95220022057526 7.1703862241172605 7 -1 -8
304 102 1 -0.8476 -4.326131080943794 -6.63160175839826 10.081331401379932 8 -14 -1
1068 356 2 0.4238 -0.5773052648138446 -6.682359759431597 6.327902419493517 0 5 -9
1139 380 2 0.4238 -5.174806452974888 -9.385721802278262 10.870684437634358 1 -8 -3
123 41 2 0.4238 -3.116133391847786 -9.277292628705922 11.79364379107617 5 -3 -4
671 224 2 0.4238 -1.0916465596311458 -11.476419097129916 7.418852178940865 3 5 20
1138 380 1 -0.8476 -5.876452717853736 -8.723979786349702 10.606419912130944 1 -8 -3
596 199 2 0.4238 -0.5142924432071112 -8.329276021964887 8.63293455472907 -3 -2 9
1431 477 2 0.4238 -2.991225868604756 -9.091708263329856 7.988711134075563 -17 10 9
1429 477 1 -0.8476 -2.2602001557951024 -8.429613826480365 8.153872034145573 -17 10 9
1430 477 2 0.4238 -2.2390672135436205 -7.763512101993071 7.408279841015867 -17 10 9
122 41 2 0.4238 -2.470560938762546 -9.549476708718977 10.318550515056392 5 -3 -4
121 41 1 -0.8476 -3.1300862176236954 -9.878329233790126 10.994515501751357 5 -3 -4
1128 376 2 0.4238 -3.380763096451819 -6.946365933602356 11.528046815759039 15 -3 14
1126 376 1 -0.8476 -3.1092708829470155 -7.465628090763149 12.338419942797705 15 -3 14
285 95 2 0.4238 -11.552144273950018 -1.1719044703764698 7.046901840777517 -2 7 9
284 95 2 0.4238 -10.83588737520503 -0.7555941789944889 8.454173493147772 -2 7 9
1042 348 1 -0.8476 -6.510103813895124 -0.7834125135217622 10.330983126847078 -18 5 13
1043 348 2 0.4238 -6.7405841926249055 -0.8353729556968457 11.30269552776898 -18 5 13
846 282 2 0.4238 -6.31051021671129 -5.988892208988529 6.960166403034185 -2 1 5
956 319 2 0.4238 -10.365894228212639 -4.9718033445799765 6.744916435910907 -10 26 -12
378 126 2 0.4238 -8.211122797090493 -4.696567102804933 7.454895883710721 3 -8 -4
411 137 2 0.4238 -8.89725234596525 -5.281336634695803 11.500215521198959 -5 -13 -6
913 305 1 -0.8476 -11.744064277648281 -5.67562316288738 7.846774048576309 10 6 7
409 137 1 -0.8476 -8.243524595815053 -5.515821223867623 10.780699907425502 -5 -13 -6
914 305 2 0.4238 -11.473504954866995 -6.126810760920018 8.697229038730073 10 6 7
644 215 2 0.4238 -6.552108430538167 -4.732107851386747 11.050223135721113 -2 -2 21
440 147 2 0.4238 -9.498408925365501 -1.5160964228224003 10.288265966944609 -7 -8 10
441 147 2 0.4238 -8.145006017340899 -1.088172199756107 9.480844301600607 -7 -8 10
439 147 1 -0.8476 -9.143957506869182 -1.1153554783182962 9.443389028547331 -7 -8 10
283 95 1 -0.8476 -11.711260872184198 -0.848324547623502 7.979652813591903 -2 7 9
80 27 2 0.4238 -6.420213997116081 -2.67367944903045 6.476034499467177 -2 -4 -14
952 318 1 -0.8476 -10.274374944132376 -5.139897448092241 12.2989601669908 -2 -17 -8
954 318 2 0.4238 -10.893124417107286 -4.512890804601417 11.82561303873936 -2 -17 -8