
group   solvent type 1 2 
1500 atoms in group solvent
group   water   type 1 2 
1500 atoms in group water
group   ions    type 3 4
18 atoms in group ions
group   wall    type 5 6 7
0 atoms in group wall
group   flying  type 8 9 10 11
0 atoms in group flying
group   eq_run  union solvent ions flying
1518 atoms in group eq_run
            
######################################################################
pair_style   lj/cut/coul/long 9.000000 9.000000
kspace_style pppm 0.0001

# LJ JC_SPCE (neq? False)
# real particles
pair_coeff  1 1     0.155354    3.169   9.0   # O O
pair_coeff  3 3     0.352644    2.1595  9.0   # Na Na
pair_coeff  4 4     0.0127851   4.8305  9.0   # Cl Cl
# flying particles
pair_coeff  8 8     0.155354    3.169   9.0   # O O
pair_coeff  10 10   0.352644    2.1595  9.0   # Na Na
pair_coeff  11 11   0.0127851   4.8305  9.0   # Cl Cl
# wall particles: not exist now
pair_coeff  * 5 0 0 9.0
pair_coeff  * 6 0 0 9.0
pair_coeff  * 7 0 0 9.0
# hydrogens
pair_coeff  * 2 0 0 9.0 # hydrogen
pair_coeff  * 9 0 0 9.0 # flying hydrogen

# intramolecular force field
bond_coeff  1   100000   1.0
angle_coeff 1   100000   109.470000

        
pair_modify  tail no shift yes mix arithmetic # LB mixing rule
neigh_modify delay 5 every 1 check yes page 500000 one 50000
######################################################################
fix fOHs        all    shake 0.00001 40 ${rattle_freq} b 1 a 1
fix fOHs        all    shake 0.00001 40 50000 b 1 a 1
       0 = # of size 2 clusters
       0 = # of size 3 clusters
       0 = # of size 4 clusters
     500 = # of frozen angles
  find clusters CPU = 0.001 seconds
timestep 2.000000
thermo 2000
fix  eqmd   eq_run npt temp 298.150000 298.150000 200.000000 iso 1.000000 1.000000 2000.000000
run 1000 # (neq? False) MD run
PPPM initialization ...
  using 12-bit tables for long-range coulomb (../kspace.cpp:340)
  G vector (1/distance) = 0.29805167
  grid = 15 15 15
  stencil order = 5
  estimated absolute RMS force accuracy = 0.027207019
  estimated relative force accuracy = 8.193313e-05
  using single precision KISS FFT
  3d grid and FFT values/proc = 1728 150
SHAKE stats (type/ave/delta/count) on step 8000
     1   0.999981  3.10635e-06     1500
     1   109.470   0.000290221      500
Per MPI rank memory allocation (min/avg/max) = 9.569 | 9.575 | 9.579 Mbytes
Step Temp Atoms Density TotEng PotEng KinEng E_coul E_vdwl E_long E_bond E_angle E_dihed Enthalpy Press 
    8000   298.123958     1518     1.041015 -6316.354587 -7220.112542   903.757955 22607.932452  1231.618028 -31059.663022     0.000000     0.000000     0.000000 -6194.330033   550.200844 
    9000   295.891124     1518     1.050313 -6339.507374 -7236.496529   896.989155 22631.727495  1189.134327 -31057.358350     0.000000     0.000000     0.000000 -6319.572986    90.685655 
Loop time of 1.54705 on 27 procs for 1000 steps with 1518 atoms

Performance: 111.697 ns/day, 0.215 hours/ns, 646.393 timesteps/s
100.0% CPU use with 27 MPI tasks x no OpenMP threads

MPI task timing breakdown:
Section |  min time  |  avg time  |  max time  |%varavg| %total
---------------------------------------------------------------
Pair    | 0.36462    | 0.64967    | 0.78298    |  14.8 | 41.99
Bond    | 0.00043973 | 0.00064625 | 0.00086729 |   0.0 |  0.04
Kspace  | 0.31592    | 0.45371    | 0.75594    |  18.4 | 29.33
Neigh   | 0.088143   | 0.090135   | 0.096118   |   0.7 |  5.83
Comm    | 0.14104    | 0.16771    | 0.18627    |   2.8 | 10.84
Output  | 5.9894e-05 | 6.6348e-05 | 0.00020489 |   0.0 |  0.00
Modify  | 0.13628    | 0.16578    | 0.18981    |   3.8 | 10.72
Other   |            | 0.01933    |            |       |  1.25

Nlocal:        56.2222 ave          64 max          49 min
Histogram: 3 1 3 2 6 2 2 4 2 2
Nghost:        2743.63 ave        2787 max        2710 min
Histogram: 4 2 1 5 5 4 2 1 2 1
Neighs:        15751.9 ave       19433 max       12973 min
Histogram: 3 3 1 1 8 7 2 1 0 1

Total # of neighbors = 425302
Ave neighs/atom = 280.17260
Ave special neighs/atom = 1.9762846
Neighbor list builds = 83
Dangerous builds = 0
unfix fOHs
unfix    eqmd

group   solvent type 1 2 
1500 atoms in group solvent
group   water   type 1 2 
1500 atoms in group water
group   ions    type 3 4
18 atoms in group ions
group   wall    type 5 6 7
0 atoms in group wall
group   flying  type 8 9 10 11
0 atoms in group flying
group   eq_run  union solvent ions flying
1518 atoms in group eq_run
            
######################################################################
pair_style   lj/cut/coul/long 9.000000 9.000000
kspace_style pppm 0.0001

# LJ JC_SPCE (neq? False)
# real particles
pair_coeff  1 1     0.155354    3.169   9.0   # O O
pair_coeff  3 3     0.352644    2.1595  9.0   # Na Na
pair_coeff  4 4     0.0127851   4.8305  9.0   # Cl Cl
# flying particles
pair_coeff  8 8     0.155354    3.169   9.0   # O O
pair_coeff  10 10   0.352644    2.1595  9.0   # Na Na
pair_coeff  11 11   0.0127851   4.8305  9.0   # Cl Cl
# wall particles: not exist now
pair_coeff  * 5 0 0 9.0
pair_coeff  * 6 0 0 9.0
pair_coeff  * 7 0 0 9.0
# hydrogens
pair_coeff  * 2 0 0 9.0 # hydrogen
pair_coeff  * 9 0 0 9.0 # flying hydrogen

# intramolecular force field
bond_coeff  1   100000   1.0
angle_coeff 1   100000   109.470000

        
pair_modify  tail no shift yes mix arithmetic # LB mixing rule
neigh_modify delay 5 every 1 check yes page 500000 one 50000
######################################################################
# shake is off; should be a dummy run
timestep 2.000000
thermo 2000
fix  eqmd   eq_run npt temp 298.150000 298.150000 200.000000 iso 1.000000 1.000000 2000.000000
run 0 # (neq? False) MD run
PPPM initialization ...
  using 12-bit tables for long-range coulomb (../kspace.cpp:340)
  G vector (1/distance) = 0.29832784
  grid = 15 15 15
  stencil order = 5
  estimated absolute RMS force accuracy = 0.026966089
  estimated relative force accuracy = 8.1207577e-05
  using single precision KISS FFT
  3d grid and FFT values/proc = 1728 150
Per MPI rank memory allocation (min/avg/max) = 8.695 | 8.701 | 8.704 Mbytes
Step Temp Atoms Density TotEng PotEng KinEng E_coul E_vdwl E_long E_bond E_angle E_dihed Enthalpy Press 
    9000   198.366034     1518     1.050313 -6339.469366 -7236.458521   896.989155 22660.410575  1189.134327 -31086.043558     0.040132     0.000003     0.000000 -1340.163328 22742.877857 
Loop time of 2.86207e-06 on 27 procs for 0 steps with 1518 atoms

147.5% CPU use with 27 MPI tasks x no OpenMP threads

MPI task timing breakdown:
Section |  min time  |  avg time  |  max time  |%varavg| %total
---------------------------------------------------------------
Pair    | 0          | 0          | 0          |   0.0 |  0.00
Bond    | 0          | 0          | 0          |   0.0 |  0.00
Kspace  | 0          | 0          | 0          |   0.0 |  0.00
Neigh   | 0          | 0          | 0          |   0.0 |  0.00
Comm    | 0          | 0          | 0          |   0.0 |  0.00
Output  | 0          | 0          | 0          |   0.0 |  0.00
Modify  | 0          | 0          | 0          |   0.0 |  0.00
Other   |            | 2.862e-06  |            |       |100.00

Nlocal:        56.2222 ave          64 max          49 min
Histogram: 2 2 4 3 3 3 3 3 2 2
Nghost:        2741.74 ave        2780 max        2709 min
Histogram: 3 2 3 2 5 6 1 1 2 2
Neighs:        15748.7 ave       19392 max       13050 min
Histogram: 3 3 1 2 8 5 3 1 0 1

Total # of neighbors = 425214
Ave neighs/atom = 280.11462
Ave special neighs/atom = 1.9762846
Neighbor list builds = 0
Dangerous builds = 0
unfix    eqmd
#The center (4.000000) and alpha (0.100000) of bimodal biasing function
create_atoms 10 single 4.247567 -0.745506 1.417293
Created 1 atoms
  using lattice units in orthogonal box = (-12.350925 -12.350925 -12.350925) to (12.350925 12.350925 12.350925)
  create_atoms CPU = 0.000 seconds
create_atoms 11 single 6.729537 -5.297377 -0.135951
Created 1 atoms
  using lattice units in orthogonal box = (-12.350925 -12.350925 -12.350925) to (12.350925 12.350925 12.350925)
  create_atoms CPU = 0.000 seconds
set atom 1520 image 0 0 0
Setting atom values ...
  1 settings made for image
group   widom_test  type    10 11 # insert salt-pair
2 atoms in group widom_test
run 0 post no # temp=0.593298 unit_lj?=False velocity generated
WARNING: No fixes defined, atoms won't move (../verlet.cpp:55)
PPPM initialization ...
  using 12-bit tables for long-range coulomb (../kspace.cpp:340)
  G vector (1/distance) = 0.29832784
  grid = 15 15 15
  stencil order = 5
  estimated absolute RMS force accuracy = 0.026948343
  estimated relative force accuracy = 8.1154134e-05
  using single precision KISS FFT
  3d grid and FFT values/proc = 1728 150
Per MPI rank memory allocation (min/avg/max) = 8.695 | 8.701 | 8.704 Mbytes
Step Temp Atoms Density TotEng PotEng KinEng E_coul E_vdwl E_long E_bond E_angle E_dihed Enthalpy Press 
    9000   198.193688     1520     1.056752 -6339.067139 -7236.458521   897.391382 22660.410561  1189.134327 -31086.043544     0.040132     0.000003     0.000000 -1339.492950 22744.097733 
Loop time of 2.8603e-06 on 27 procs for 0 steps with 1520 atoms

run 0 post no # temp=0.593298 unit_lj?=False velocity generated
WARNING: No fixes defined, atoms won't move (../verlet.cpp:55)
PPPM initialization ...
  using 12-bit tables for long-range coulomb (../kspace.cpp:340)
  G vector (1/distance) = 0.29832784
  grid = 15 15 15
  stencil order = 5
  estimated absolute RMS force accuracy = 0.026948343
  estimated relative force accuracy = 8.1154134e-05
  using single precision KISS FFT
  3d grid and FFT values/proc = 1728 150
Per MPI rank memory allocation (min/avg/max) = 8.695 | 8.701 | 8.704 Mbytes
Step Temp Atoms Density TotEng PotEng KinEng E_coul E_vdwl E_long E_bond E_angle E_dihed Enthalpy Press 
    9000   198.209604     1520     1.056752 -6338.995074 -7236.458521   897.463447 22660.410561  1189.134327 -31086.043544     0.040132     0.000003     0.000000 -1339.372840 22744.316294 
Loop time of 3.10048e-06 on 27 procs for 0 steps with 1520 atoms

# generated_velocity_salt 1519 cation vel -0.003756 0.000145 -0.000716
# generated_velocity_salt 1520 anion vel 0.001012 0.000368 0.000735
set type 10 charge 1.000000
Setting atom values ...
  1 settings made for charge
set type 11 charge -1.000000
Setting atom values ...
  1 settings made for charge
run 0 post no # insert flying molecule
WARNING: No fixes defined, atoms won't move (../verlet.cpp:55)
PPPM initialization ...
  using 12-bit tables for long-range coulomb (../kspace.cpp:340)
  G vector (1/distance) = 0.29832784
  grid = 15 15 15
  stencil order = 5
  estimated absolute RMS force accuracy = 0.027045136
  estimated relative force accuracy = 8.1445625e-05
  using single precision KISS FFT
  3d grid and FFT values/proc = 1728 150
Per MPI rank memory allocation (min/avg/max) = 8.695 | 8.701 | 8.704 Mbytes
Step Temp Atoms Density TotEng PotEng KinEng E_coul E_vdwl E_long E_bond E_angle E_dihed Enthalpy Press 
    9000   198.209604     1520     1.056752 -6402.213884 -7299.677332   897.463447 22662.574020  1189.134327 -31151.425814     0.040132     0.000003     0.000000 -1423.583426 22648.820365 
Loop time of 3.28515e-06 on 27 procs for 0 steps with 1520 atoms

group noneq_run_rigid    intersect   all         water               # select_salt no selection
1500 atoms in group noneq_run_rigid
group noneq_run_pre      subtract    all         noneq_run_rigid     # select_salt no selection
20 atoms in group noneq_run_pre
group noneq_run          subtract    noneq_run_pre   widom_test      # select_salt no selection
18 atoms in group noneq_run
group noneq_run_pre      delete
run 0 post no # mom rev random number
WARNING: No fixes defined, atoms won't move (../verlet.cpp:55)
PPPM initialization ...
  using 12-bit tables for long-range coulomb (../kspace.cpp:340)
  G vector (1/distance) = 0.29832784
  grid = 15 15 15
  stencil order = 5
  estimated absolute RMS force accuracy = 0.027045136
  estimated relative force accuracy = 8.1445625e-05
  using single precision KISS FFT
  3d grid and FFT values/proc = 1728 150
Per MPI rank memory allocation (min/avg/max) = 8.695 | 8.701 | 8.704 Mbytes
Step Temp Atoms Density TotEng PotEng KinEng E_coul E_vdwl E_long E_bond E_angle E_dihed Enthalpy Press 
    9000   198.209604     1520     1.056752 -6402.213884 -7299.677332   897.463447 22662.574020  1189.134327 -31151.425814     0.040132     0.000003     0.000000 -1423.583426 22648.820365 
Loop time of 3.23448e-06 on 27 procs for 0 steps with 1520 atoms

run 0 post no # momentum reversal applied
WARNING: No fixes defined, atoms won't move (../verlet.cpp:55)
PPPM initialization ...
  using 12-bit tables for long-range coulomb (../kspace.cpp:340)
  G vector (1/distance) = 0.29832784
  grid = 15 15 15
  stencil order = 5
  estimated absolute RMS force accuracy = 0.027045136
  estimated relative force accuracy = 8.1445625e-05
  using single precision KISS FFT
  3d grid and FFT values/proc = 1728 150
Per MPI rank memory allocation (min/avg/max) = 8.695 | 8.701 | 8.704 Mbytes
Step Temp Atoms Density TotEng PotEng KinEng E_coul E_vdwl E_long E_bond E_angle E_dihed Enthalpy Press 
    9000   198.209604     1520     1.056752 -6402.213884 -7299.677332   897.463447 22662.574020  1189.134327 -31151.425814     0.040132     0.000003     0.000000 -1423.583426 22648.820365 
Loop time of 3.138e-06 on 27 procs for 0 steps with 1520 atoms

######################################################################
pair_style   lj/cut/coul/long/neq 14.000000 14.000000 9000 5000 3.000000 7 1 0 1.000000 3.000000 11 1.000000
kspace_style pppm/neq 0.0001 9000 5000 3.000000 7 1 0 1.000000 3.000000 11 1.000000

# LJ JC_SPCE (neq? True)
# real particles
pair_coeff  1 1     0.155354    3.169   14.0   # O O
pair_coeff  3 3     0.352644    2.1595  14.0   # Na Na
pair_coeff  4 4     0.0127851   4.8305  14.0   # Cl Cl
# flying particles
pair_coeff  8 8     0.155354    3.169   14.0   # O O
pair_coeff  10 10   0.352644    2.1595  14.0   # Na Na
pair_coeff  11 11   0.0127851   4.8305  14.0   # Cl Cl
# wall particles: not exist now
pair_coeff  * 5 0 0 14.0
pair_coeff  * 6 0 0 14.0
pair_coeff  * 7 0 0 14.0
# hydrogens
pair_coeff  * 2 0 0 14.0 # hydrogen
pair_coeff  * 9 0 0 14.0 # flying hydrogen

# intramolecular force field
bond_coeff  1   100000   1.0
angle_coeff 1   100000   109.470000

        
pair_modify  tail no shift yes mix arithmetic # LB mixing rule
neigh_modify delay 4 every 1 check yes page 500000 one 50000
######################################################################
timestep 4.000000
fix  eqmd  noneq_run_rigid     rigid/nve molecule  # rigid water
  500 rigid bodies with 1500 atoms
fix  eqions  noneq_run           nve                 # nve for non-rigid
run 5000 # (neq? True) MD run
4D PPPM initialization ...
  using 12-bit tables for long-range coulomb (../kspace.cpp:340)
  G vector (1/distance) = 0.19394813
  grid = 10 10 10
  stencil order = 5
  estimated absolute RMS force accuracy = 0.01840812
  estimated relative force accuracy = 5.5435506e-05
  using single precision KISS FFT
  3d grid and FFT values/proc = 729 80
Neighbor list info ...
  update every 1 steps, delay 4 steps, check yes
  max neighbors/atom: 50000, page size: 500000
  master list distance cutoff = 16
  ghost atom cutoff = 16
  binsize = 8, bins = 4 4 4
  1 neighbor lists, perpetual/occasional/extra = 1 0 0
  (1) pair lj/cut/coul/long/neq, perpetual
      attributes: half, newton on
      pair build: half/bin/newton
      stencil: half/bin/3d
      bin: standard
Per MPI rank memory allocation (min/avg/max) = 9.944 | 9.949 | 9.953 Mbytes
Step Temp Atoms Density TotEng PotEng KinEng E_coul E_vdwl E_long E_bond E_angle E_dihed Enthalpy Press 
    9000   295.463688     1520     1.056752 12828.523115 11931.068283   897.454832 11799.187555  1141.447532 -1009.606939     0.040132     0.000003     0.000000 13885.933797  4810.380040 
   10000   297.125322     1520     1.056752 11999.587633 11097.085678   902.501955 11738.751286  1198.189043 -1839.894786     0.040132     0.000003     0.000000 12114.401285   522.311067 
   12000   299.290705     1520     1.056752  7729.261053  6820.181864   909.079189 11715.789160  1214.917918 -6110.565349     0.040132     0.000003     0.000000  7910.303329   823.598783 
   14000   289.512575     1520     1.056752 -6557.040888 -7436.419539   879.378651 11667.182507  1194.154337 -20297.796518     0.040132     0.000003     0.000000 -6462.267170   431.145259 
Loop time of 22.0842 on 27 procs for 5000 steps with 1520 atoms

Performance: 78.246 ns/day, 0.307 hours/ns, 226.407 timesteps/s
100.0% CPU use with 27 MPI tasks x no OpenMP threads

MPI task timing breakdown:
Section |  min time  |  avg time  |  max time  |%varavg| %total
---------------------------------------------------------------
Pair    | 6.5216     | 10.977     | 12.452     |  59.1 | 49.70
Bond    | 0.015083   | 0.024687   | 0.029256   |   2.5 |  0.11
Kspace  | 2.4267     | 3.8905     | 8.4468     | 100.0 | 17.62
Neigh   | 2.1561     | 2.2095     | 2.3608     |   3.9 | 10.00
Comm    | 2.0026     | 2.174      | 2.7418     |  12.8 |  9.84
Output  | 0.00020651 | 0.00031874 | 0.00066628 |   0.0 |  0.00
Modify  | 1.6256     | 2.5007     | 2.8031     |  24.1 | 11.32
Other   |            | 0.3078     |            |       |  1.39

Nlocal:        56.2963 ave          65 max          49 min
Histogram: 2 3 4 3 1 8 0 2 3 1
Nghost:        6505.44 ave        6588 max        6367 min
Histogram: 1 0 3 1 3 3 3 6 4 3
Neighs:        48670.1 ave       55543 max       41886 min
Histogram: 1 3 6 1 3 4 2 3 1 3

Total # of neighbors = 1314094
Ave neighs/atom = 864.53553
Ave special neighs/atom = 1.9736842
Neighbor list builds = 807
Dangerous builds = 6
unfix    eqmd
unfix    eqions
run 0 post no # momentum reversal applied
WARNING: No fixes defined, atoms won't move (../verlet.cpp:55)
4D PPPM initialization ...
  using 12-bit tables for long-range coulomb (../kspace.cpp:340)
  G vector (1/distance) = 0.19394813
  grid = 10 10 10
  stencil order = 5
  estimated absolute RMS force accuracy = 0.01840812
  estimated relative force accuracy = 5.5435506e-05
  using single precision KISS FFT
  3d grid and FFT values/proc = 729 80
Per MPI rank memory allocation (min/avg/max) = 8.696 | 8.700 | 8.704 Mbytes
Step Temp Atoms Density TotEng PotEng KinEng E_coul E_vdwl E_long E_bond E_angle E_dihed Enthalpy Press 
   14000   194.215480     1520     1.056752 -6557.040889 -7436.419540   879.378651 11667.182507  1194.154337 -20297.796519     0.040132     0.000003     0.000000 -1430.064868 23323.675028 
Loop time of 3.23463e-06 on 27 procs for 0 steps with 1520 atoms


group   solvent type 1 2 
1500 atoms in group solvent
group   water   type 1 2 
1500 atoms in group water
group   ions    type 3 4
18 atoms in group ions
group   wall    type 5 6 7
0 atoms in group wall
group   flying  type 8 9 10 11
2 atoms in group flying
group   eq_run  union solvent ions flying
1520 atoms in group eq_run
            
######################################################################
pair_style   lj/cut/coul/long 9.000000 9.000000
kspace_style pppm 0.0001

# LJ JC_SPCE (neq? False)
# real particles
pair_coeff  1 1     0.155354    3.169   9.0   # O O
pair_coeff  3 3     0.352644    2.1595  9.0   # Na Na
pair_coeff  4 4     0.0127851   4.8305  9.0   # Cl Cl
# flying particles
pair_coeff  8 8     0.155354    3.169   9.0   # O O
pair_coeff  10 10   0.352644    2.1595  9.0   # Na Na
pair_coeff  11 11   0.0127851   4.8305  9.0   # Cl Cl
# wall particles: not exist now
pair_coeff  * 5 0 0 9.0
pair_coeff  * 6 0 0 9.0
pair_coeff  * 7 0 0 9.0
# hydrogens
pair_coeff  * 2 0 0 9.0 # hydrogen
pair_coeff  * 9 0 0 9.0 # flying hydrogen

# intramolecular force field
bond_coeff  1   100000   1.0
angle_coeff 1   100000   109.470000

        
pair_modify  tail no shift yes mix arithmetic # LB mixing rule
neigh_modify delay 5 every 1 check yes page 500000 one 50000
######################################################################
run 0 post no # update forcefield; return to Eq
WARNING: No fixes defined, atoms won't move (../verlet.cpp:55)
PPPM initialization ...
  using 12-bit tables for long-range coulomb (../kspace.cpp:340)
  G vector (1/distance) = 0.29832784
  grid = 15 15 15
  stencil order = 5
  estimated absolute RMS force accuracy = 0.027045136
  estimated relative force accuracy = 8.1445625e-05
  using single precision KISS FFT
  3d grid and FFT values/proc = 1728 150
Neighbor list info ...
  update every 1 steps, delay 5 steps, check yes
  max neighbors/atom: 50000, page size: 500000
  master list distance cutoff = 11
  ghost atom cutoff = 11
  binsize = 5.5, bins = 5 5 5
  1 neighbor lists, perpetual/occasional/extra = 1 0 0
  (1) pair lj/cut/coul/long, perpetual
      attributes: half, newton on
      pair build: half/bin/newton
      stencil: half/bin/3d
      bin: standard
Per MPI rank memory allocation (min/avg/max) = 8.695 | 8.701 | 8.704 Mbytes
Step Temp Atoms Density TotEng PotEng KinEng E_coul E_vdwl E_long E_bond E_angle E_dihed Enthalpy Press 
   14000   194.215480     1520     1.056752 -6509.973227 -7389.351878   879.378651 22564.393163  1240.889911 -31194.675087     0.040132     0.000003     0.000000 -1335.370471 23540.338904 
Loop time of 2.70674e-06 on 27 procs for 0 steps with 1520 atoms

# done post_propagate after NEMD
# selected salt 1519/1520
#The center of bimodal dist. on a positive side=4.000000
delete_atoms group widom_test compress no bond yes mol yes # reject_insert
Deleted 2 atoms, new total = 1518
Deleted 0 bonds, new total = 1000
Deleted 0 angles, new total = 500
run 0 post no # delete trial-inserted flying molecule
WARNING: No fixes defined, atoms won't move (../verlet.cpp:55)
PPPM initialization ...
  using 12-bit tables for long-range coulomb (../kspace.cpp:340)
  G vector (1/distance) = 0.29832784
  grid = 15 15 15
  stencil order = 5
  estimated absolute RMS force accuracy = 0.026966089
  estimated relative force accuracy = 8.1207577e-05
  using single precision KISS FFT
  3d grid and FFT values/proc = 1728 150
Per MPI rank memory allocation (min/avg/max) = 8.695 | 8.701 | 8.704 Mbytes
Step Temp Atoms Density TotEng PotEng KinEng E_coul E_vdwl E_long E_bond E_angle E_dihed Enthalpy Press 
   14000   194.366644     1518     1.050313 -6211.256583 -7090.160941   878.904358 22732.882537  1217.096732 -31040.180346     0.040132     0.000003     0.000000 -1058.591466 23440.540046 
Loop time of 2.69048e-06 on 27 procs for 0 steps with 1518 atoms

run 0 post no # return_position back to old
WARNING: No fixes defined, atoms won't move (../verlet.cpp:55)
PPPM initialization ...
  using 12-bit tables for long-range coulomb (../kspace.cpp:340)
  G vector (1/distance) = 0.29832784
  grid = 15 15 15
  stencil order = 5
  estimated absolute RMS force accuracy = 0.026966089
  estimated relative force accuracy = 8.1207577e-05
  using single precision KISS FFT
  3d grid and FFT values/proc = 1728 150
Per MPI rank memory allocation (min/avg/max) = 8.695 | 8.701 | 8.704 Mbytes
Step Temp Atoms Density TotEng PotEng KinEng E_coul E_vdwl E_long E_bond E_angle E_dihed Enthalpy Press 
   14000   198.366034     1518     1.050313 -6339.469366 -7236.458521   896.989155 22660.410575  1189.134327 -31086.043558     0.040132     0.000003     0.000000 -1340.163328 22742.877856 
Loop time of 2.80552e-06 on 27 procs for 0 steps with 1518 atoms

group widom_test         delete
group noneq_run          delete
group noneq_run_rigid    delete
reset_timestep 9000

group   solvent delete
group   water   delete
group   ions    delete
group   wall    delete
group   flying  delete
group   eq_run  delete
        
write_data restart_after_MC_8.data pair ij
System init for write_data ...
PPPM initialization ...
  using 12-bit tables for long-range coulomb (../kspace.cpp:340)
  G vector (1/distance) = 0.29832784
  grid = 15 15 15
  stencil order = 5
  estimated absolute RMS force accuracy = 0.026966089
  estimated relative force accuracy = 8.1207577e-05
  using single precision KISS FFT
  3d grid and FFT values/proc = 1728 150
log logfile_hneqMDMC.9
