LAMMPS data file via write_data, version 28 Oct 2021, timestep = 10000

1518 atoms
11 atom types
1000 bonds
1 bond types
500 angles
1 angle types

-12.477541376028643 12.477541376028643 xlo xhi
-12.477541376028643 12.477541376028643 ylo yhi
-12.477541376028643 12.477541376028643 zlo zhi

Masses

1 15.9994
2 1.00794
3 22.989769
4 35.453
5 60
6 60
7 60
8 15.9994
9 1.00794
10 22.989769
11 35.453

PairIJ Coeffs # lj/cut/coul/long

1 1 0.155354 3.169 9
1 2 0 0 9
1 3 0.234061 2.66425 9
1 4 0.044567 3.99975 9
1 5 0 0 9
1 6 0 0 9
1 7 0 0 9
1 8 0 0 9
1 9 0 0 9
1 10 0 0 9
1 11 0 0 9
2 2 0 0 9
2 3 0 1.07975 9
2 4 0 2.41525 9
2 5 0 0 9
2 6 0 0 9
2 7 0 0 9
2 8 0 0 9
2 9 0 0 9
2 10 0 0 9
2 11 0 0 9
3 3 0.352644 2.1595 9
3 4 0.067146 3.495 9
3 5 0 0 9
3 6 0 0 9
3 7 0 0 9
3 8 0 0 9
3 9 0 0 9
3 10 0 0 9
3 11 0 0 9
4 4 0.0127851 4.8305 9
4 5 0 0 9
4 6 0 0 9
4 7 0 0 9
4 8 0 0 9
4 9 0 0 9
4 10 0 0 9
4 11 0 0 9
5 5 0 0 9
5 6 0 0 9
5 7 0 0 9
5 8 0 0 9
5 9 0 0 9
5 10 0 0 9
5 11 0 0 9
6 6 0 0 9
6 7 0 0 9
6 8 0 0 9
6 9 0 0 9
6 10 0 0 9
6 11 0 0 9
7 7 0 0 9
7 8 0 0 9
7 9 0 0 9
7 10 0 0 9
7 11 0 0 9
8 8 0 0 9
8 9 0 0 9
8 10 0 0 9
8 11 0 0 9
9 9 0 0 9
9 10 0 0 9
9 11 0 0 9
10 10 0 0 9
10 11 0 0 9
11 11 0 0 9

Bond Coeffs # harmonic

1 100000 1

Angle Coeffs # harmonic

1 100000 109.47

Atoms # full

90 94 1 -0.8476 -5.7145326787590145 -9.100138608124894 -9.72621615388977 -28 -5 12
1284 187 2 0.4238 -10.934196798156012 -12.039346251206092 -8.975961563248957 -65 -22 -9
1384 217 2 0.4238 -7.575940136041162 -7.003883304812148 -6.079880032350483 -57 -26 9
715 30 2 0.4238 -7.349058323349966 -12.150646020587532 -8.535362290281215 -62 -16 -16
1286 432 2 0.4238 -7.8293101209522895 -11.030612362083032 -6.06062622208665 -44 -19 -13
1356 84 2 0.4238 -12.252638680485296 -5.426927023787483 -4.9225596649486425 -43 -27 -9
1451 71 2 0.4238 -4.43600429758119 -10.559373960591241 -5.625841316869523 -50 -42 -15
1110 1 2 0.4238 -4.176303832604727 -7.006389330992682 -7.174107671213572 -50 -35 16
892 257 2 0.4238 -4.52147461070254 -5.747390937568447 -9.847930763146135 -37 -25 -12
1285 187 1 -0.8476 -10.765242166359792 -11.760890139335858 -8.030495715501708 -65 -22 -9
1051 432 2 0.4238 -6.901556624143897 -11.882836452955992 -5.021595132830317 -44 -19 -13
734 173 1 -0.8476 -9.843055595284774 -7.052197665632381 -4.388340262918323 -34 -23 -19
1353 84 1 -0.8476 -11.390777299403904 -4.979670546121342 -4.683504224093562 -43 -27 -9
44 94 2 0.4238 -5.760442347199574 -8.166908899594564 -9.369897494786736 -28 -5 12
1137 217 1 -0.8476 -7.018623748265251 -6.450455971470931 -5.460924951388177 -57 -26 9
1007 173 2 0.4238 -9.70839264014755 -7.293262324252758 -5.349455272874866 -34 -23 -19
328 69 2 0.4238 -11.735476501176121 -4.3914357037905045 -7.338922285907029 -15 -24 8
45 94 2 0.4238 -6.414306351231711 -9.660759808074056 -9.28348716514926 -28 -5 12
1049 432 1 -0.8476 -7.830644092703681 -11.751123508188144 -5.367192083285988 -44 -19 -13
1395 84 2 0.4238 -10.912518915867714 -4.7094232160951846 -5.519102302104594 -43 -27 -9
1283 187 2 0.4238 -9.883345063259352 -11.292933516573541 -7.973377472244456 -65 -22 -9
1112 1 2 0.4238 -4.5180890239355485 -7.224635455486609 -5.592290069303103 -50 -35 16
1135 217 2 0.4238 -6.562623009316713 -7.046523119091689 -4.800049365121163 -57 -26 9
884 450 2 0.4238 -9.34712459096756 -4.5410953914362135 -7.189951140855731 -82 -52 -1
866 357 2 0.4238 -7.327253041585082 -4.884967070059687 -4.608112244091815 -38 -44 11
965 244 1 -0.8476 -4.929154800698353 -4.532330003855169 -11.500650226116097 -65 -35 1
1082 364 1 -0.8476 -4.896139701368495 -9.527134058170013 -12.214505998402949 -45 -34 23
919 355 1 -0.8476 -4.884004074972831 -12.232503909396035 -11.151117257846442 -52 -33 17
1083 364 2 0.4238 -5.122575232262437 -9.51917032117275 -11.240518122491629 -45 -34 23
551 349 2 0.4238 -12.201978821037821 -11.266739283537545 -7.517783020779924 -50 -49 -7
918 355 2 0.4238 -5.170300380029213 -12.246303072258154 -10.193081648585864 -52 -33 17
1014 348 2 0.4238 -12.050053939830363 -11.150163833205617 -11.87171683542959 -62 -18 17
1383 0 4 -1 -7.95473519944429 -10.16734007279928 -8.166443129527934 -10 -15 -21
890 257 1 -0.8476 -4.217157443188697 -6.329931241915496 -9.094255742015356 -37 -25 -12
881 175 1 -0.8476 -7.686459118432634 -4.813937862303774 -7.519703793929773 -40 -8 7
195 174 2 0.4238 -9.558838533566123 -7.304066356217914 -7.8086562131157 -78 -35 -4
845 175 2 0.4238 -7.496370024949369 -5.046214006322261 -8.473591717315957 -40 -8 7
760 326 1 -0.8476 -11.294919774474469 -6.676529034176992 -9.124513594973198 -22 -2 6
758 326 2 0.4238 -11.835024957397916 -5.960383995992579 -8.682459746574047 -22 -2 6
849 449 2 0.4238 -10.737010179499123 -9.337142094900868 -12.388993182420123 -45 -43 -3
150 308 1 -0.8476 -9.335076097457572 -5.774603559178922 -10.928903580674447 -66 -53 -2
1139 175 2 0.4238 -7.262889287421388 -5.493259963195606 -6.92045532312821 -40 -8 7
148 308 2 0.4238 -8.6819802123864 -5.121672167402261 -10.545321970659224 -66 -53 -2
973 208 1 -0.8476 -9.617913072876272 -9.933751338925795 -10.873427238703426 -42 -17 -31
967 244 2 0.4238 -4.7780598377580015 -4.972038173184976 -12.385983631577224 -65 -35 1
197 174 2 0.4238 -8.74402638150099 -8.554123440181899 -7.145305670609617 -78 -35 -4
4 216 2 0.4238 -6.572128662021718 -4.2209787963406775 -10.457488578240294 -43 -22 4
974 208 2 0.4238 -9.204484668227556 -9.533433414337221 -10.055618511424296 -42 -17 -31
149 308 2 0.4238 -9.838168707583485 -6.217750516450393 -10.186942060360362 -66 -53 -2
196 174 1 -0.8476 -9.002262667881643 -7.594900326714512 -7.030435274947358 -78 -35 -4
972 208 2 0.4238 -8.899348477201977 -10.297290794151738 -11.466295510269585 -42 -17 -31
732 173 2 0.4238 -10.264361056630447 -6.147325670298737 -4.3275336958521695 -34 -23 -19
762 326 2 0.4238 -11.908229925110088 -7.339436830478593 -9.553923491535802 -22 -2 6
806 452 2 0.4238 -11.16584558184267 -7.578496566934084 -3.4949460220118755 -74 -14 -22
587 340 2 0.4238 -8.314512654852702 -11.031826850888226 3.5198816439434673 -41 -28 10
590 340 2 0.4238 -7.5211586598230165 -9.706336862075833 2.9904841934384727 -41 -28 10
314 483 2 0.4238 -12.3685698353061 -4.778968582807172 2.6295386512246886 -38 -30 17
717 193 1 -0.8476 -9.626327559165443 -9.320933852007089 1.0755831255514874 -50 -34 0
199 405 1 -0.8476 -10.091285290969042 -9.717969601862642 -1.551754799833855 -42 -34 -6
824 48 2 0.4238 -8.573539956555884 -4.492883370760242 0.26859712781837786 -44 -29 21
1330 402 2 0.4238 -6.680762719563247 -5.769967885437919 1.6902160503357937 -35 -24 0
576 343 2 0.4238 -12.209078623948852 -6.357972630113789 -1.461122894377871 -65 -24 -28
1232 500 2 0.4238 -5.558124272885241 -7.212847768433922 0.7772704871904121 -60 -27 6
421 259 1 -0.8476 -11.017236121326555 -10.647263290120277 3.112874974783125 -33 -21 57
422 259 2 0.4238 -12.007487819425986 -10.508218312616338 3.120390934495868 -33 -21 57
410 436 2 0.4238 -11.71054058814146 -6.416420132583322 0.7482054825178981 -38 -27 15
1234 500 2 0.4238 -4.314382751219991 -7.068231623546212 -0.27096113443192316 -60 -27 6
586 340 1 -0.8476 -7.8553948899005 -10.613813962870655 2.7360035268268685 -41 -28 10
1413 36 1 -0.8476 -7.304691516782301 -8.027804633066886 3.5932157062769363 -58 -19 28
638 89 2 0.4238 -5.310268976181379 -4.226966702989724 2.73199765336277 -27 -33 8
673 193 2 0.4238 -8.883275657859716 -9.859532202369172 1.4727907924544539 -50 -34 0
1329 402 1 -0.8476 -7.109592322514998 -6.577359260936367 1.28498469898698 -35 -24 0
826 48 2 0.4238 -9.632207264697401 -5.187901320378611 1.2995037194401142 -44 -29 21
423 259 2 0.4238 -10.608836935249158 -10.09650647995602 2.3849564316216476 -33 -21 57
1328 402 2 0.4238 -7.5036379148350045 -6.335817090764986 0.39820760107809683 -35 -24 0
1100 106 2 0.4238 -10.837282655890192 -4.419125192861362 -3.0952623095618534 -39 -38 -24
1358 106 2 0.4238 -11.03663004552901 -4.220480661544089 -1.4867237396549005 -39 -38 -24
367 436 2 0.4238 -10.439856554412312 -7.195601289600271 1.415164302129483 -38 -27 15
716 193 2 0.4238 -9.650475061102263 -9.464973896439464 0.08631177480918595 -50 -34 0
825 48 1 -0.8476 -8.966542315985444 -4.450166869982667 1.187135903942286 -44 -29 21
198 405 2 0.4238 -10.869851625974928 -9.326191921510542 -2.0419934919630407 -42 -34 -6
1412 36 2 0.4238 -7.287482258524277 -7.49067791459572 2.7498962498016457 -58 -19 28
615 343 1 -0.8476 -12.386121684770737 -5.498186342604233 -0.9821520491307911 -65 -24 -28
1233 500 1 -0.8476 -4.6211738270602085 -7.499543503641639 0.5774716317410498 -60 -27 6
200 405 2 0.4238 -9.93364145191389 -10.652965794156874 -1.8694320552765689 -42 -34 -6
411 436 1 -0.8476 -11.047798535908813 -6.405852657739284 1.4969708771554924 -38 -27 15
455 474 2 0.4238 -5.07928554376975 -10.736639792083183 0.7982668388700649 -36 -32 11
31 114 2 0.4238 -12.075192503656238 -6.827330296348699 3.9035828890273407 -48 -29 11
1193 293 2 0.4238 -4.616572272374198 -9.8036103764621 2.9129291317084576 -31 -26 16
1189 293 1 -0.8476 -4.601483663588992 -9.84812856106502 3.9118180566450036 -31 -26 16
451 474 2 0.4238 -4.419606594651036 -9.244562740356809 0.8698524048556795 -36 -32 11
1108 476 2 0.4238 -11.382125016295397 -12.185566206439367 -3.0337908429003946 -43 -10 -21
794 229 2 0.4238 -8.001605582318604 -4.481789860684962 -1.7330954564141994 -52 -39 -7
807 452 1 -0.8476 -11.91256486471205 -8.054495942846295 -3.030377689740577 -74 -14 -22
579 234 2 0.4238 -5.718049605691524 -11.291507518124893 -3.2882959832202054 -21 -48 5
1134 159 2 0.4238 -8.484168725268969 -7.665247011114536 -3.0571740649526067 -22 -34 31
578 234 1 -0.8476 -5.39327039841401 -11.72550230814681 -4.128627073689115 -21 -48 5
1106 476 1 -0.8476 -12.380297310870858 -12.245059754854735 -3.0438316255193243 -43 -10 -21
580 234 2 0.4238 -4.610873137992437 -12.31223838414353 -3.9198534125717046 -21 -48 5
808 452 2 0.4238 -12.322353695547285 -8.72035540775338 -3.6538300137485145 -74 -14 -22
171 258 2 0.4238 -5.604504027063596 -8.590474760322031 -3.153252126946942 -54 -18 1
170 258 2 0.4238 -4.884236988458743 -7.128019434438296 -3.2483038304703005 -54 -18 1
172 258 1 -0.8476 -5.477965341531042 -7.778109312929168 -3.7224961740715425 -54 -18 1
21 47 2 0.4238 -6.772576576148101 -9.064640627150476 -2.0784896995595403 -39 -59 14
485 11 2 0.4238 -9.002514806595544 -11.717337433705202 -3.9336985556663144 -23 -26 1
418 341 1 -0.8476 -6.985026616328952 -11.350380538060607 0.09857424164948903 -14 -28 35
36 11 1 -0.8476 -9.237667770097644 -11.835555867486592 -2.9689623329934047 -23 -26 1
19 47 1 -0.8476 -6.271183789042541 -9.925220876442825 -1.989066626960625 -39 -59 14
35 11 2 0.4238 -8.414097575183511 -12.066878054830203 -2.4510717940950695 -23 -26 1
877 159 2 0.4238 -8.757827620808195 -8.437022569885299 -1.6443509474669842 -22 -34 31
876 159 1 -0.8476 -8.11084976097062 -7.867987745354861 -2.151901549897609 -22 -34 31
393 480 2 0.4238 -4.375002248689459 -5.562764807239476 -2.276963827128629 -84 -20 -9
790 229 2 0.4238 -7.810971426213587 -6.081446978665953 -1.465976858253212 -52 -39 -7
420 341 2 0.4238 -6.942769754745255 -12.26672054976885 -0.2995768713754181 -14 -28 35
454 474 1 -0.8476 -4.369449815818044 -10.17743550849774 1.2265331858403066 -36 -32 11
791 229 1 -0.8476 -7.777016202954474 -5.173985411215928 -1.0472287264630413 -52 -39 -7
419 341 2 0.4238 -7.5459087821331385 -11.372100607744095 0.9261778759797306 -14 -28 35
17 47 2 0.4238 -6.594551029674391 -10.416918834417196 -1.1805773748351136 -39 -59 14
1052 243 2 0.4238 -11.292193577677692 -4.457559136248051 10.22302450476128 -42 -1 8
912 280 2 0.4238 -11.738625080536945 -6.132788164131221 9.165713055518978 -35 -44 -5
651 57 2 0.4238 -4.2413532729301355 -4.253453391172565 10.376575969163419 -49 -12 13
1038 165 1 -0.8476 -6.748039787498004 -6.81751653569931 9.789649857891924 -61 -41 8
662 330 2 0.4238 -5.364381528874335 -6.380250013843956 10.572950087778025 -47 -17 -1
135 158 2 0.4238 -8.147935890815102 -10.822535254934529 11.644824211410974 -35 -68 11
913 280 1 -0.8476 -11.62181636505713 -6.206028491117411 10.15615849806472 -35 -44 -5
1071 165 2 0.4238 -7.366112068094441 -7.021302502943406 10.548890529207718 -61 -41 8
249 485 2 0.4238 -8.18044366763064 -8.335593746750158 11.820567239214355 -41 -18 -12
595 28 2 0.4238 -6.941459547382265 -4.883804507028575 9.230798581426036 -35 -63 -4
134 158 2 0.4238 -9.435017449836408 -11.549963791614783 10.951380850628361 -35 -68 11
122 194 1 -0.8476 -9.044637063797591 -6.914135687095689 11.396776227238824 -86 -50 1
476 254 2 0.4238 -12.393153474470699 -9.969772943691833 8.504700060752164 -45 -12 11
1040 165 2 0.4238 -6.927931879926657 -7.448351030419005 9.034881697955342 -61 -41 8
509 485 1 -0.8476 -7.681379281357073 -9.201258848286372 11.85989792556304 -41 -18 -12
133 158 1 -0.8476 -8.705883206895319 -11.652235520031853 11.628058009595716 -35 -68 11
661 330 1 -0.8476 -4.577602553350524 -6.034520787656373 11.084261339069062 -47 -17 -1
123 194 2 0.4238 -9.182271557980327 -6.5020807747787845 12.297473905361688 -86 -50 1
506 485 2 0.4238 -6.7276128400343405 -9.025364320187627 12.103576513829246 -41 -18 -12
1188 293 2 0.4238 -4.460200258104253 -8.930889787173214 4.284243301458165 -31 -26 16
1464 498 2 0.4238 -10.524035030148635 -11.449403495189735 9.383628627559904 -26 -42 24
850 449 2 0.4238 -12.060002572549395 -8.659828296518583 11.889678188951379 -45 -43 -4
1170 280 2 0.4238 -12.447454398310025 -6.598988711121197 10.560995803965923 -35 -44 -5
1214 498 1 -0.8476 -10.77484056743284 -10.497555696622038 9.207359176308259 -26 -42 24
851 449 1 -0.8476 -11.429702188304084 -9.435236029651882 11.851566083572191 -45 -43 -4
333 65 2 0.4238 -5.817136391776337 -5.974026129007401 6.405209752159347 -43 -18 -27
1079 364 2 0.4238 -4.703352654359545 -10.464620501769591 12.450851273287842 -45 -34 22
331 65 2 0.4238 -4.7111286216349 -6.704671142802281 5.451532256889184 -43 -18 -27
332 65 1 -0.8476 -5.68431455709259 -6.641751103535005 5.672754962356059 -43 -18 -27
1494 223 2 0.4238 -9.903148080872787 -10.98784069975101 4.434627983770863 -52 -35 5
1490 223 2 0.4238 -9.384628349550946 -10.591533408805686 5.931516037851182 -52 -35 5
1213 498 2 0.4238 -11.144402882491931 -10.09011141273813 10.042465751150608 -26 -42 24
902 412 2 0.4238 -9.226879686111435 -8.13271466772862 6.487161130554529 -34 -34 -2
1196 478 2 0.4238 -6.5533192000785 -12.175761218603075 4.817541468045672 -45 -48 17
649 344 1 -0.8476 -12.31898418780903 -5.6789471681203185 7.466846421953473 -46 -32 6
1154 478 2 0.4238 -5.286682306530941 -11.16609767779373 4.610642593009423 -45 -48 17
1414 36 2 0.4238 -6.662426035568064 -7.6352880684048925 4.251557916226911 -58 -19 28
1076 204 2 0.4238 -9.716267883371536 -6.017315930754679 6.011709023137925 -22 -12 -2
1075 204 1 -0.8476 -9.850406612128044 -5.0959737232978535 6.376571198723436 -22 -12 -2
1195 478 1 -0.8476 -5.77633508360987 -11.737382548067034 5.26932531812367 -45 -48 17
1074 204 2 0.4238 -10.705757788727588 -5.063484906027691 6.893590152312747 -22 -12 -2
737 39 2 0.4238 -5.819023164571633 -8.084837520302163 6.865239391343803 -55 -37 -11
120 194 2 0.4238 -9.900862633433972 -6.8820101330379755 10.881183595469846 -86 -50 1
900 412 1 -0.8476 -9.370646891993827 -7.588883063599647 5.660380289854 -34 -34 -2
783 418 2 0.4238 -9.429682271510197 -9.643685776976447 8.55546375215518 -54 -39 5
861 412 2 0.4238 -8.730083460778477 -7.884258148651896 4.951564172897587 -34 -34 -2
30 114 1 -0.8476 -12.070348463035012 -7.442543248370165 4.691922389972493 -48 -29 11
782 418 1 -0.8476 -8.663425606166575 -9.18235298198064 8.108237759096443 -54 -39 5
779 418 2 0.4238 -7.939206305342576 -9.84561536543329 7.919616496354841 -54 -39 5
32 114 2 0.4238 -11.133541185421908 -7.550585285165501 5.024649916380806 -48 -29 11
480 39 1 -0.8476 -5.461376306685557 -8.49101351613838 7.706130673368712 -55 -37 -11
1094 347 2 0.4238 -6.262667233091022 -11.207165435767298 6.797495220771157 -42 -36 13
1092 347 1 -0.8476 -6.521802398636157 -10.939474900014504 7.725492766825106 -42 -36 13
264 39 2 0.4238 -5.745582591979629 -9.448197337244247 7.7610363227271755 -55 -37 -11
1493 223 1 -0.8476 -9.166981517829203 -11.10465821174445 5.101262261960208 -52 -35 5
799 347 2 0.4238 -6.91325364361074 -11.726459496971795 8.202367391791512 -42 -36 13
1433 482 1 -0.8476 -11.504995180776575 -1.3318892934697821 -6.812920173597347 -48 -36 -1
1319 306 1 -0.8476 -11.734456345675556 3.0898188295901683 -4.417402466338174 -56 -18 4
391 302 1 -0.8476 -7.65710731781166 -1.2284169715770474 -11.457831628843982 -38 -30 -12
931 450 2 0.4238 -9.967058222180825 -3.081194167444533 -6.801407474979777 -82 -52 -1
392 302 2 0.4238 -7.767419352948759 -0.28826498469496187 -11.780219648160871 -38 -30 -12
832 493 2 0.4238 -9.84413359079414 0.7737860726761809 -8.778371340102963 -31 -36 -21
853 27 2 0.4238 -5.324283239350351 3.477622830471658 -5.861210522441346 -62 -26 6
867 357 2 0.4238 -7.2402206178593005 -3.2665342626662603 -4.807361316801607 -38 -44 11
69 447 2 0.4238 -4.471492986621001 -2.3293311324426167 -9.451519308808424 -49 -44 -13
1432 482 2 0.4238 -10.68293602277519 -0.9384827218751326 -6.401291466942049 -48 -36 -1
1489 166 2 0.4238 -9.151995361121003 0.49178339715719943 -6.175005449480767 -48 -8 45
1327 447 2 0.4238 -4.565702024601431 -2.6216753046369874 -7.847694342696682 -49 -44 -13
390 302 2 0.4238 -8.37308499972977 -1.8029460514646587 -11.854418034249932 -38 -30 -12
712 59 2 0.4238 -7.323284367241471 -3.367818702941234 -7.078943414856914 -21 -22 -13
70 79 2 0.4238 -9.5856079732261 2.930723151056023 -9.070695229789047 -52 -36 0
73 79 2 0.4238 -9.567050561690309 2.6573888512476813 -10.68052093696496 -52 -36 0
932 450 1 -0.8476 -10.170303332993317 -4.0558113752255505 -6.895222862223632 -82 -52 -1
1217 25 2 0.4238 -10.177897720327094 0.2097979541547801 -4.461390426433281 -42 -19 -7
833 493 2 0.4238 -8.249540833836638 0.7689867879802001 -8.426453905925896 -31 -36 -21
127 473 2 0.4238 -7.968628364354269 3.8232893857476853 -11.016573747426346 -66 -14 -3
1491 166 1 -0.8476 -9.131614023618916 -0.3898953932108782 -5.703607726445251 -48 -8 45
1005 489 2 0.4238 -9.185346491505344 4.063545136017524 -5.556273739402035 -47 -34 -3
665 267 2 0.4238 -8.132613502197406 2.3606381688254316 -4.53425593854103 -39 -40 11
68 447 1 -0.8476 -5.004692716297683 -2.1652341589393576 -8.621604482625674 -49 -44 -13
1492 166 2 0.4238 -8.192949851391752 -0.6000910301793319 -5.430266083491523 -48 -8 45
854 27 1 -0.8476 -5.591783157319844 3.8831374202391444 -6.735275931502132 -62 -26 6
91 473 2 0.4238 -6.444313280693217 3.8331195631687933 -11.602203681885282 -66 -14 -3
937 59 2 0.4238 -7.6478166266721175 -1.767423985892055 -7.075532403246297 -21 -22 -13
1317 306 2 0.4238 -10.897036235586526 3.577177425419336 -4.664783955300739 -56 -18 4
834 493 1 -0.8476 -9.122553845887762 1.2248388007110087 -8.253145193694184 -31 -36 -21
426 60 2 0.4238 -4.589669235432953 -2.8205535659280336 -5.7358086128224945 -43 -44 7
475 23 2 0.4238 -7.141879683766218 3.3543610829119945 -6.555420931672126 -33 -65 24
72 79 1 -0.8476 -9.916398218241124 3.253385255814827 -9.957518296069827 -52 -36 0
474 23 1 -0.8476 -8.076166616962212 3.079874056527993 -6.327927098447207 -33 -65 24
165 482 2 0.4238 -12.270462426123009 -1.2469999628977746 -6.175077967914499 -48 -36 -1
714 59 1 -0.8476 -7.297117686141033 -2.530570690804632 -6.532756628007572 -21 -22 -13
473 23 2 0.4238 -8.418132747952484 2.4509024104020387 -7.026098334967927 -33 -65 24
362 224 1 -0.8476 -7.105690561269166 -0.5877282874691208 -8.679381534434196 -36 -30 38
336 117 2 0.4238 -12.32877971280719 -1.638424018224887 -12.156935973050878 -53 -37 -1
968 244 2 0.4238 -4.661142590821914 -3.570518571243033 -11.556122895272658 -65 -35 1
8 216 2 0.4238 -7.872398453081858 -3.344275055857956 -10.912774126320501 -43 -22 4
575 192 2 0.4238 -11.778384682925978 0.002273356688982986 -10.970057891281485 -34 -37 -17
5 216 1 -0.8476 -7.532679954493582 -4.023253964720343 -10.261952658199668 -43 -22 4
837 192 2 0.4238 -10.74799380207119 0.34424086843876367 -12.18987257299187 -34 -37 -17
268 323 1 -0.8476 -12.01672623020952 -0.32617065726044103 -9.342546558820413 -43 -25 -2
29 323 2 0.4238 -11.608668256591814 -0.8443138180624814 -8.59087846259247 -43 -25 -2
574 192 1 -0.8476 -11.66746951950313 0.022703141965751072 -11.963672077987276 -34 -37 -17
360 224 2 0.4238 -7.442264841590955 -0.7711603778723717 -9.602993288537238 -36 -30 38
361 224 2 0.4238 -6.338547272666623 -1.1964866887366483 -8.477159634127592 -36 -30 38
294 339 2 0.4238 -11.902498888327436 3.065871060757802 -10.053323315033758 -75 -28 31
1114 0 4 -1 -8.923119332786586 1.3640983884701345 -12.44158348960815 0 -15 -18
1457 315 2 0.4238 -4.393418780457267 3.0044987958644906 -7.860323819421959 -55 -26 -1
740 394 1 -0.8476 -10.234283319858855 0.8674549830921503 3.3155318816125643 -69 -23 13
656 213 2 0.4238 -11.347763663486067 -2.0814611480226652 2.6252061743279373 -25 -51 24
488 394 2 0.4238 -9.488935501496362 1.2158872972362076 3.883897793225753 -69 -23 13
1510 139 2 0.4238 -7.331147972377875 -0.27168884743317356 4.0629707889925335 -23 -35 -12
635 89 2 0.4238 -5.889116659360949 -3.6985816072647406 1.2993987983280864 -27 -33 8
822 143 1 -0.8476 -5.386686900275679 1.1806492610041932 -0.5695113505537464 -33 -23 11
640 70 2 0.4238 -9.874135960573685 3.048660885564276 0.8108866964085255 -50 -19 2
914 179 2 0.4238 -11.35630263891108 0.6177078908427376 -2.051137649705426 -32 -29 40
1460 169 2 0.4238 -9.35956841773355 -2.4734826596677824 -2.594873188897571 -40 -51 18
1509 139 1 -0.8476 -6.858074898192606 -1.140619999840844 3.917539390629724 -23 -35 -12
636 70 2 0.4238 -10.501280953882354 1.6440757726443618 0.26277498339400296 -50 -19 2
1506 169 2 0.4238 -7.895410761782055 -2.9687145687245966 -3.1217346716840897 -40 -51 18
823 143 2 0.4238 -5.817092420502471 0.7440398918167208 -1.3595194668030448 -33 -23 11
147 112 1 -0.8476 -4.9548171289041125 -3.1606326224589925 -0.12607412928953465 -41 -30 -7
609 179 1 -0.8476 -11.698142856467078 0.6382346617070453 -1.111610008166945 -32 -29 40
1508 139 2 0.4238 -5.903635233557065 -0.9642915355857848 3.67682912049489 -23 -35 -12
1368 136 1 -0.8476 -7.584186145429141 -1.992530817393238 0.2445382982961295 -62 -31 -1
1369 136 2 0.4238 -8.123640850964652 -2.0414623721292653 -0.5960464327811259 -62 -31 -1
1505 169 1 -0.8476 -8.372054252062314 -2.349548440415889 -2.497688827798065 -40 -51 18
756 446 2 0.4238 -6.5207343772614035 1.5170498702021629 3.9673015130358564 -23 -44 21
706 137 2 0.4238 -4.945287216987636 2.780425369306924 -0.46625369713920506 -56 -49 -8
637 70 1 -0.8476 -10.059094672863807 2.092844765580999 1.039348395895562 -50 -19 2
818 143 2 0.4238 -5.879423359561179 0.9248503137637609 0.262213474874315 -33 -23 11
1133 285 1 -0.8476 -4.937321080192478 3.464851661674617 -4.100458604003727 -19 -19 -15
872 179 2 0.4238 -12.432126354992615 1.313464840549944 -1.038654798391832 -32 -29 40
804 463 2 0.4238 -8.49095061515923 1.161743798222174 0.9374956338885774 -45 -28 9
639 89 1 -0.8476 -6.1309208913547995 -4.128971149057255 2.1690447360434444 -27 -33 8
657 213 1 -0.8476 -10.380803254124048 -1.8572677528543533 2.7465049995173274 -25 -51 24
1367 136 2 0.4238 -6.688477793000391 -2.409629247991127 0.09050770277699982 -62 -31 -1
107 112 2 0.4238 -4.904135439898459 -3.492887645316724 -1.0678953383083076 -41 -30 -7
1359 106 1 -0.8476 -10.404618770212892 -4.099681569256138 -2.252204253110518 -39 -38 -24
1089 310 1 -0.8476 -9.05457422132283 4.068235724274828 -1.8457156727439124 -68 -35 -17
705 137 1 -0.8476 -4.313895701401485 3.521249901880994 -0.23709837259265854 -56 -49 -8
389 213 2 0.4238 -10.298240590853009 -0.9512628816690238 3.161628418964531 -25 -51 24
757 446 1 -0.8476 -6.2303104571295105 1.6898071698229042 3.026133589578224 -23 -44 21
741 394 2 0.4238 -10.196540854604113 1.2997427347275234 2.4145925247199624 -69 -23 13
311 434 2 0.4238 -4.61789555482019 2.4132278364086837 2.616021223376407 -29 -25 2
502 446 2 0.4238 -6.8992288639943125 1.2989883869917431 2.3938384528715506 -23 -44 21
20 0 3 1 -8.2096743761315 -2.7537709297110133 2.5438063400644833 -10 -16 -17
801 463 1 -0.8476 -7.723586487198281 0.552777159835907 1.1382535379824859 -45 -28 9
1059 310 2 0.4238 -8.656354332512961 3.1904369378871884 -2.111945692799429 -68 -35 -17
753 463 2 0.4238 -7.88547365825265 -0.3383161999229696 0.7143034266537018 -45 -28 9
1320 306 2 0.4238 -11.498337397053628 2.2295696868792945 -3.9655086777250617 -56 -18 4
1478 481 2 0.4238 -7.420217296885984 0.7173204114820049 -2.61766433629567 -27 -50 -12
1488 462 2 0.4238 -5.310707049980661 -0.2402936491622274 -3.657824643879348 -58 -21 0
1180 25 2 0.4238 -11.759731596418437 0.11696738016661534 -4.066701136064658 -42 -19 -7
868 357 1 -0.8476 -7.140064194828287 -4.0150407525887015 -4.151846876068035 -38 -44 11
663 267 1 -0.8476 -7.844734023786277 2.310386111955168 -3.5779148352116295 -39 -40 11
1479 481 1 -0.8476 -6.9565523681899935 -0.1293311981145564 -2.356543474718057 -27 -50 -12
1264 481 2 0.4238 -7.5855851695994705 -0.899671132936664 -2.460862751233977 -27 -50 -12
12 34 1 -0.8476 -4.999116174053729 -3.9542883343269875 -2.707118670525622 -25 -29 -2
664 267 2 0.4238 -7.168523135108273 3.024129503387794 -3.3954391439068186 -39 -40 11
1132 285 2 0.4238 -5.408976321976561 4.005096772360478 -3.4035616011013925 -19 -19 -15
1218 25 1 -0.8476 -10.899551277784187 0.5935840071461786 -3.885271594982335 -42 -19 -7
1485 462 1 -0.8476 -4.492830673116269 -0.7611480839436204 -3.902319490076101 -58 -21 0
15 34 2 0.4238 -5.781272456257477 -4.09758441588979 -3.313490312646495 -25 -29 -2
13 34 2 0.4238 -4.423638124245775 -3.2227056016206834 -3.072632324622493 -25 -29 -2
1159 3 2 0.4238 -7.8315998767197605 -0.23196537563177166 8.590177123559315 -57 -20 25
18 249 2 0.4238 -8.018640561775197 -3.3101811347183574 11.04244339583662 -37 -42 -13
257 461 2 0.4238 -8.982915175546617 -4.013501101162049 5.387911350743931 -36 -43 -16
667 132 1 -0.8476 -11.438864229963396 -1.8187613083755618 7.85685951049733 -45 -41 21
293 196 1 -0.8476 -8.623342156078566 1.467206365914727 9.413710070271549 -60 -12 -3
221 249 2 0.4238 -9.625559363794023 -3.5383046469169983 11.222354817981586 -37 -42 -13
378 163 2 0.4238 -12.12779948249478 0.9127816749331767 8.568012318376333 -59 -23 8
909 307 2 0.4238 -10.256428216393726 2.7281230394532194 11.687446302598424 -31 -14 10
220 249 1 -0.8476 -8.777393007848753 -3.296506519579987 11.693669839477067 -37 -42 -13
1371 292 1 -0.8476 -9.273452118817893 3.8946157006503945 5.984455962138398 -36 -23 -17
947 41 2 0.4238 -4.320710057045339 3.0057901348844585 8.877976042579853 -45 -40 1
1342 281 1 -0.8476 -11.987100352648618 2.0005687699986456 5.563887227333499 -56 -46 4
948 41 1 -0.8476 -4.944442274692182 2.256456665387242 8.65561144362421 -45 -40 1
1465 0 3 1 -5.583867772401121 -2.1522050964311017 9.024456016265361 -4 -1 -9
819 431 1 -0.8476 -4.901111609559623 2.4669080560318193 5.745324544928689 -65 -35 -9
74 191 1 -0.8476 -5.535454440896784 -1.6851478675596265 11.263632991854504 -54 -55 6
377 163 1 -0.8476 -11.337882328814631 1.4316280387415006 8.241182611301117 -59 -23 8
256 196 2 0.4238 -9.517159696888296 1.4378752353874678 8.966252389273205 -60 -12 -3
957 307 1 -0.8476 -10.954041223357088 3.217176051341827 11.163851377625495 -31 -14 10
668 132 2 0.4238 -11.355315048350361 -2.1644725583318607 8.791467152558365 -45 -41 21
710 132 2 0.4238 -11.847161465247225 -2.52310906957689 7.276190778380631 -45 -41 21
1370 292 2 0.4238 -10.175106202224466 3.49674537179836 5.815022863497941 -36 -23 -17
401 312 2 0.4238 -4.639527393824558 1.19685512104531 12.339381900241824 -33 -38 -22
376 163 2 0.4238 -11.411237059014947 1.5629674178658046 7.252568591330906 -59 -23 8
1015 231 2 0.4238 -5.932978297697883 2.0594720574556415 10.746246545288322 -33 -12 9
76 191 2 0.4238 -6.095885441356821 -1.9336098757074058 12.053678842365311 -54 -55 6
106 494 1 -0.8476 -4.187004402601737 -0.2618968398244039 8.580409772456957 -50 -23 -18
1419 464 2 0.4238 -8.61175408389322 0.8715641241463565 5.733068970740764 -52 -60 2
1343 281 2 0.4238 -11.442585004773772 1.3636005817478427 5.018210335414079 -56 -46 4
104 494 2 0.4238 -4.664939375075092 0.5972675674209622 8.763175851782208 -50 -23 -18
1157 3 1 -0.8476 -7.478335831190847 -1.043168019152528 8.12419114203135 -57 -20 25
951 41 2 0.4238 -5.738472495153657 2.617669939330707 8.166703695187998 -45 -40 1
959 307 2 0.4238 -11.504130220441256 2.5610017583796125 10.647299554277105 -31 -14 10
597 28 2 0.4238 -8.217496165477487 -3.8964528759402786 8.978881880021419 -35 -63 -4
75 191 2 0.4238 -4.96651171021162 -0.8955980901562413 11.493641281501926 -54 -55 6
292 196 2 0.4238 -8.747893362289815 1.496403501593056 10.405487786274485 -60 -12 -3
1158 3 2 0.4238 -8.056890865777994 -1.2532813349260508 7.336082439904477 -57 -20 25
596 28 1 -0.8476 -7.231814437110677 -3.930843850545971 9.143918190051856 -35 -63 -4
1010 231 2 0.4238 -6.92132848673182 1.8193801745784057 12.023789220814216 -33 -12 9
394 10 2 0.4238 -5.209853217899876 3.5899390450504676 11.915269475041665 -35 -52 1
1421 464 2 0.4238 -8.298358321764622 2.472183392542348 5.653082860839518 -52 -60 2
1013 231 1 -0.8476 -6.044402179836838 2.199788970352822 11.730057653406856 -33 -12 9
1420 464 1 -0.8476 -8.066079902558899 1.5749501412491345 5.27757288395188 -52 -60 2
1054 243 1 -0.8476 -11.172688615457071 -3.4939087290906023 10.461952415740281 -42 -1 8
1053 243 2 0.4238 -11.628929264789077 -3.3071649708298487 11.331986939319943 -42 -1 8
1128 251 2 0.4238 -7.8455725663997455 3.574123909636885 7.24169436702552 -25 -45 -10
3 85 2 0.4238 -10.190614714587431 -1.0944674299814707 6.701922772259653 -38 -50 9
258 461 1 -0.8476 -8.315475208512161 -3.4380220836037925 4.915326484591805 -36 -43 -16
241 85 1 -0.8476 -9.609768492650739 -0.9146628537419872 5.908022920620898 -38 -50 9
260 461 2 0.4238 -7.391471247658272 -3.708765585330882 5.185332374016834 -36 -43 -16
242 85 2 0.4238 -9.457845601018143 -1.7663275506549851 5.406450489022092 -38 -50 9
1130 251 1 -0.8476 -7.266899630374203 3.1850052361493706 7.958432915991164 -25 -45 -10
364 83 2 0.4238 -5.5606816730568 4.027965444100204 5.452606220794571 -50 -23 -9