LAMMPS data file via write_data, version 28 Oct 2021, timestep = 9000

1518 atoms
11 atom types
1000 bonds
1 bond types
500 angles
1 angle types

-12.3509247588992 12.3509247588992 xlo xhi
-12.3509247588992 12.3509247588992 ylo yhi
-12.3509247588992 12.3509247588992 zlo zhi

Masses

1 15.9994
2 1.00794
3 22.989769
4 35.453
5 60
6 60
7 60
8 15.9994
9 1.00794
10 22.989769
11 35.453

PairIJ Coeffs # lj/cut/coul/long

1 1 0.155354 3.169 9
1 2 0 0 9
1 3 0.234061 2.66425 9
1 4 0.044567 3.99975 9
1 5 0 0 9
1 6 0 0 9
1 7 0 0 9
1 8 0.155354 3.169 9
1 9 0 0 9
1 10 0.234061 2.66425 9
1 11 0.044567 3.99975 9
2 2 0 0 9
2 3 0 1.07975 9
2 4 0 2.41525 9
2 5 0 0 9
2 6 0 0 9
2 7 0 0 9
2 8 0 1.5845 9
2 9 0 0 9
2 10 0 1.07975 9
2 11 0 2.41525 9
3 3 0.352644 2.1595 9
3 4 0.067146 3.495 9
3 5 0 0 9
3 6 0 0 9
3 7 0 0 9
3 8 0.234061 2.66425 9
3 9 0 0 9
3 10 0.352644 2.1595 9
3 11 0.067146 3.495 9
4 4 0.0127851 4.8305 9
4 5 0 0 9
4 6 0 0 9
4 7 0 0 9
4 8 0.044567 3.99975 9
4 9 0 0 9
4 10 0.067146 3.495 9
4 11 0.0127851 4.8305 9
5 5 0 0 9
5 6 0 0 9
5 7 0 0 9
5 8 0 1.5845 9
5 9 0 0 9
5 10 0 1.07975 9
5 11 0 2.41525 9
6 6 0 0 9
6 7 0 0 9
6 8 0 1.5845 9
6 9 0 0 9
6 10 0 1.07975 9
6 11 0 2.41525 9
7 7 0 0 9
7 8 0 1.5845 9
7 9 0 0 9
7 10 0 1.07975 9
7 11 0 2.41525 9
8 8 0.155354 3.169 9
8 9 0 0 9
8 10 0.234061 2.66425 9
8 11 0.044567 3.99975 9
9 9 0 0 9
9 10 0 1.07975 9
9 11 0 2.41525 9
10 10 0.352644 2.1595 9
10 11 0.067146 3.495 9
11 11 0.0127851 4.8305 9

Bond Coeffs # harmonic

1 100000 1

Angle Coeffs # harmonic

1 100000 109.47

Atoms # full

972 208 2 0.4238 -8.722437696728853 -11.74731854706277 -9.671578294114008 -42 -17 -31
551 349 2 0.4238 -12.147505938415414 -11.759709935643158 -6.38680809272566 -50 -49 -7
1383 0 4 -1 -8.054120841628166 -10.099477020322752 -6.324175078924422 -10 -15 -21
1079 364 2 0.4238 -4.1744208135559955 -10.661293856943962 -10.47687377030213 -45 -34 23
889 257 2 0.4238 -5.229677234361785 -5.61070793637632 -8.161489740271133 -37 -25 -12
1283 187 2 0.4238 -9.737393361079466 -10.883961274386886 -5.670245246280313 -65 -22 -9
134 158 2 0.4238 -7.34313723739999 -12.226745072182064 -12.204286562541903 -35 -68 12
758 326 2 0.4238 -10.995599248647839 -5.813369690940273 -8.241807699599232 -22 -2 6
1285 187 1 -0.8476 -10.478089191208888 -11.55521767145371 -5.6415292310420355 -65 -22 -9
1082 364 1 -0.8476 -5.174255960152198 -10.649769830191055 -10.492249809788788 -45 -34 23
760 326 1 -0.8476 -10.447351600744918 -6.462995375245105 -8.76854392320792 -22 -2 6
1284 187 2 0.4238 -10.293631508773956 -12.283560354737473 -6.301477989279876 -65 -22 -9
890 257 1 -0.8476 -5.4555205214749565 -5.878140843215189 -9.09824710045742 -37 -25 -12
135 158 2 0.4238 -5.87246296310527 -11.862100388256346 -11.5952836985285 -35 -68 12
973 208 1 -0.8476 -9.079390333966025 -10.856901762303243 -9.389119759593479 -42 -17 -31
762 326 2 0.4238 -11.052816359948986 -7.097565571311025 -9.248932485030727 -22 -2 6
196 174 1 -0.8476 -8.38196920447589 -6.9706393861255815 -7.021050368246298 -78 -35 -4
1170 280 2 0.4238 -11.376421788192891 -5.622257919027786 -12.33463926641318 -35 -44 -4
1051 432 2 0.4238 -8.45677688825862 -9.70484307315315 -4.384166805926744 -44 -19 -13
326 69 1 -0.8476 -12.176754112632086 -4.783233676543414 -7.430897729847545 -15 -24 8
1054 243 1 -0.8476 -9.999522946066598 -4.5310685576529846 -11.703829427531128 -42 -1 9
328 69 2 0.4238 -11.44020690315445 -4.489309283434075 -6.821679579543597 -15 -24 8
974 208 2 0.4238 -8.671223279327112 -10.596494317813455 -8.51411827425182 -42 -17 -31
1014 348 2 0.4238 -11.606478113631928 -11.0910753803369 -11.367505606513486 -62 -18 17
195 174 2 0.4238 -9.25395831654723 -6.875560288952696 -7.5012952051693285 -78 -35 -4
892 257 2 0.4238 -5.031467655919668 -5.238126845070622 -9.739028827348431 -37 -25 -12
1011 348 1 -0.8476 -12.157017574905467 -11.889854741732636 -11.610194759449955 -62 -18 17
197 174 2 0.4238 -8.14574553933139 -7.939588039164155 -6.947722740625799 -78 -35 -4
1052 243 2 0.4238 -9.264330119844765 -4.785222891721057 -11.075389220622375 -42 -1 9
1240 382 2 0.4238 -11.493709309751878 -10.048360905569691 -5.8247013251826765 -11 -36 19
715 30 2 0.4238 -7.261510316400585 -12.241753191896581 -7.206092944176689 -62 -16 -16
45 94 2 0.4238 -6.1771089547971 -8.93995299851518 -7.749207937647154 -28 -5 12
1293 168 1 -0.8476 -12.124458818517363 -7.690765255777279 -10.506607583830325 -45 -45 -8
850 449 2 0.4238 -11.047232670578223 -8.936674729630973 -10.800234608334698 -45 -43 -3
44 94 2 0.4238 -5.479570461278913 -7.7805426467687635 -8.663505916300696 -28 -5 12
884 450 2 0.4238 -9.856766041667914 -4.601160070350417 -4.792341276538661 -82 -52 -1
1289 168 2 0.4238 -11.943171132846148 -7.355568903297858 -11.431171249977409 -45 -45 -8
1238 382 1 -0.8476 -12.218121869697704 -9.381488897357865 -5.64992145107566 -11 -36 19
1007 173 2 0.4238 -11.487026544643316 -8.199571885001898 -4.445008589735577 -34 -23 -19
851 449 1 -0.8476 -10.607421085274877 -9.73879142524636 -11.204232874355808 -45 -43 -3
1410 71 1 -0.8476 -5.097129666906115 -9.812662671565475 -5.52668059405615 -50 -42 -15
849 449 2 0.4238 -9.97920825487272 -10.14433607974323 -10.5402130736796 -45 -43 -3
1411 71 2 0.4238 -5.20713754465482 -10.002180663892597 -4.550964871669903 -50 -42 -15
1364 1 1 -0.8476 -5.609926690694141 -7.047138534319496 -4.4965196553146285 -50 -35 16
90 94 1 -0.8476 -5.685959435706685 -8.757027138739238 -8.600882906279896 -28 -5 12
1451 71 2 0.4238 -5.966844842491286 -9.965442202502278 -5.9960351408432535 -50 -42 -15
1110 1 2 0.4238 -5.879707576624652 -7.981452576968236 -4.729576639611018 -50 -35 16
1139 175 2 0.4238 -7.862675893739606 -5.044224653539834 -7.456545655719439 -40 -8 7
1083 364 2 0.4238 -5.51096309877991 -10.01288275991411 -9.798677011058391 -45 -34 23
123 194 2 0.4238 -7.935265495569488 -7.169680052131507 -12.198553381170543 -86 -50 2
148 308 2 0.4238 -7.241581019050912 -6.537753404406672 -9.778548167199666 -66 -53 -2
149 308 2 0.4238 -8.839566995449637 -6.827315981478605 -9.94979913830074 -66 -53 -2
150 308 1 -0.8476 -7.9951923839223795 -6.596403782400198 -10.433277094050647 -66 -53 -2
506 485 2 0.4238 -5.198580321514907 -9.63459164536789 -11.890264870721436 -41 -18 -11
734 173 1 -0.8476 -10.960563015950157 -7.54073998704777 -3.9075917436846925 -34 -23 -19
393 480 2 0.4238 -4.702560788663282 -4.243023808353268 -1.2608450378241987 -84 -20 -9
791 229 1 -0.8476 -8.425028676479446 -5.122460863019056 0.24695548260863376 -52 -39 -7
170 258 2 0.4238 -6.0955031699652835 -6.055901358284776 -1.6487847088002194 -54 -18 1
17 47 2 0.4238 -7.570780870219453 -9.31473755666941 0.31119260173262653 -39 -59 14
579 234 2 0.4238 -6.738921259631867 -9.640170188590027 -2.771328090958775 -21 -48 5
199 405 1 -0.8476 -11.200705602207503 -10.483253817128984 0.7637165388167251 -42 -34 -6
615 343 1 -0.8476 -11.50532189305473 -5.016757409554412 -0.5281588744689927 -65 -24 -28
485 11 2 0.4238 -8.595681688765575 -10.38644150955099 -2.2521970369436097 -23 -26 1
21 47 2 0.4238 -8.618789924934198 -8.269062542151723 -0.3779909360235578 -39 -59 14
1104 476 2 0.4238 -12.317295062836429 -11.357852614221978 -2.191486422134963 -43 -10 -21
790 229 2 0.4238 -8.00066697052522 -5.480619439512811 -0.5847172915289978 -52 -39 -7
171 258 2 0.4238 -7.373562938704947 -7.047894952487184 -1.426872440889758 -54 -18 1
876 159 1 -0.8476 -10.267272746288313 -7.792229406461421 -1.1946291993095155 -22 -34 31
576 343 2 0.4238 -10.730689861236673 -5.63128830460534 -0.6776141940317224 -65 -24 -28
1134 159 2 0.4238 -10.372078130514602 -7.755534969091251 -2.188464938396814 -22 -34 31
314 483 2 0.4238 -11.159707699824727 -6.465951485438558 3.364740184790536 -38 -30 17
1108 476 2 0.4238 -12.133304434427359 -9.863972673046591 -2.8248926812136474 -43 -10 -21
732 173 2 0.4238 -11.45660751716417 -6.673484354474392 -3.864607958100155 -34 -23 -19
35 11 2 0.4238 -8.2260276127759 -11.405136036346226 -1.0305790089669404 -23 -26 1
315 483 1 -0.8476 -12.129008915192383 -6.373098065142189 3.592498047751139 -38 -30 17
198 405 2 0.4238 -11.87776416380538 -11.165536446914297 1.039619143886604 -42 -34 -6
156 480 1 -0.8476 -4.625692758770284 -5.2393330785033685 -1.2221269328166127 -84 -20 -9
172 258 1 -0.8476 -7.0098887807433075 -6.295047100728771 -1.9755085510524282 -54 -18 1
36 11 1 -0.8476 -8.972018447294868 -11.00850096068339 -1.5655728209591988 -23 -26 1
1112 1 2 0.4238 -6.289843681783321 -6.647408105689878 -3.8817282286503616 -50 -35 16
236 495 2 0.4238 -10.455673923018752 -12.113007637736976 -1.8086973074634525 -61 -65 4
578 234 1 -0.8476 -5.953865844546652 -10.235888520096344 -2.9411734357334005 -21 -48 5
200 405 2 0.4238 -10.819509424079797 -10.73294892802561 -0.12644170650783515 -42 -34 -6
19 47 1 -0.8476 -7.685357404305386 -8.626813979489059 -0.40551739927455976 -39 -59 14
580 234 2 0.4238 -5.950372550396816 -10.980984155609072 -2.2741950174686334 -21 -48 5
716 193 2 0.4238 -10.161774241304636 -9.800389999048356 2.0139610300049604 -50 -34 0
419 341 2 0.4238 -6.357687570276722 -10.132193768492652 2.267846421453733 -14 -28 35
635 89 2 0.4238 -6.447515495981064 -4.40400394574046 3.565800952667601 -27 -33 8
547 486 2 0.4238 -8.186217411603653 -11.837606261085398 2.6315721870274853 -56 -32 30
1233 500 1 -0.8476 -4.957885784138581 -7.225019854458737 0.7953411365704692 -60 -27 6
1330 402 2 0.4238 -6.047505579722004 -6.346505397372472 1.8521463712824922 -35 -24 0
455 474 2 0.4238 -4.54250371042422 -9.832033623840703 3.39529407938414 -36 -32 11
1328 402 2 0.4238 -7.048308871549324 -5.125413971092336 1.4349395274273054 -35 -24 0
673 193 2 0.4238 -8.542581218261471 -9.80683954665172 2.2258704910439278 -50 -34 0
410 436 2 0.4238 -9.146934960899555 -6.262315119622617 1.4962068710368115 -38 -27 15
826 48 2 0.4238 -9.555334860320228 -4.859938725674522 3.247312275986406 -44 -29 21
1232 500 2 0.4238 -4.534930558179706 -8.094681922801026 0.5407104438736194 -60 -27 6
1412 36 2 0.4238 -7.522500766335562 -6.431426526499596 3.9929557326248677 -58 -19 28
717 193 1 -0.8476 -9.396130305578147 -9.346345727783 2.469672969595962 -50 -34 0
418 341 1 -0.8476 -7.08760384613676 -10.544140798806117 1.7223537008126577 -14 -28 35
454 474 1 -0.8476 -4.458562735745088 -10.081985057656759 2.4306602449330033 -36 -32 11
877 159 2 0.4238 -10.791396003784461 -8.563035119079004 -0.8324232741434034 -22 -34 31
367 436 2 0.4238 -9.301808570885806 -7.608429210245104 2.4076476668765583 -38 -27 15
1234 500 2 0.4238 -4.6944922685551145 -6.520636263218783 0.1361692442497393 -60 -27 6
420 341 2 0.4238 -6.724150423723361 -11.325560510999177 1.2150815549910803 -14 -28 35
411 436 1 -0.8476 -9.48731950689956 -6.62678104150636 2.363007326296197 -38 -27 15
1329 402 1 -0.8476 -6.574697711269187 -5.569270343376243 2.19567869555347 -35 -24 0
1384 217 2 0.4238 -9.362441673479525 -6.236750086060129 -4.028424958352906 -57 -26 9
1137 217 1 -0.8476 -8.940512309707765 -5.448875571629956 -3.5797942931115845 -57 -26 9
1353 84 1 -0.8476 -12.06611753990434 -5.041638513015202 -3.340323428478687 -43 -27 -9
794 229 2 0.4238 -8.497283727878962 -4.12715563974535 0.1822510757963567 -52 -39 -7
1395 84 2 0.4238 -11.788155203296387 -4.7772981869248135 -2.4167968217322677 -43 -27 -9
1135 217 2 0.4238 -8.318179980190942 -5.766474753420899 -2.864340834760222 -57 -26 9
1286 432 2 0.4238 -9.081406954944844 -8.325330114121815 -3.773008498541426 -44 -19 -13
613 343 2 0.4238 -12.195816967513402 -5.479877484175976 0.02751694391722559 -65 -24 -28
1049 432 1 -0.8476 -8.554851362493995 -9.148174396617634 -3.559217290645437 -44 -19 -13
297 121 2 0.4238 -7.4639127946553 -11.944715180068469 7.726720674045396 -62 -38 -6
649 344 1 -0.8476 -11.267144907192709 -6.721346166368074 9.388636889494343 -46 -32 6
1071 165 2 0.4238 -7.245801402651977 -6.728101549038172 9.85684713613361 -61 -41 8
1038 165 1 -0.8476 -6.831336727922372 -5.855037787922828 9.599906520420962 -61 -41 8
1040 165 2 0.4238 -7.548400856378545 -5.168788638439694 9.47775620914079 -61 -41 8
1413 36 1 -0.8476 -7.203407574411151 -6.922981129308476 4.8032601491694535 -58 -19 28
683 448 2 0.4238 -11.065724739804825 -12.10004318389117 6.297924406685414 -49 -15 5
122 194 1 -0.8476 -7.905485903799509 -7.95058147463315 11.879320259413909 -86 -50 1
590 340 2 0.4238 -7.115066098196346 -8.911935843719265 4.483429136618124 -41 -28 10
30 114 1 -0.8476 -11.317919973114487 -7.7969756376533015 6.007978223001928 -48 -29 11
1075 204 1 -0.8476 -9.431587367252067 -4.7392260746179735 8.324614652391421 -22 -12 -2
1076 204 2 0.4238 -8.847531373833776 -5.416332098177877 7.876902442591749 -22 -12 -2
1414 36 2 0.4238 -6.209146606855405 -7.022246543846577 4.762868167031531 -58 -19 28
902 412 2 0.4238 -8.02262751791384 -7.538859443258052 7.8095747900858115 -34 -34 -2
1074 204 2 0.4238 -10.158453770931999 -5.206651709136105 8.827822855701957 -22 -12 -2
422 259 2 0.4238 -10.82497480700749 -9.650886557397126 6.059193020854686 -33 -21 57
421 259 1 -0.8476 -10.677190312709586 -10.515441502231063 5.578834110103806 -33 -21 57
249 485 2 0.4238 -6.336254382945657 -8.774721382006861 12.01593781830282 -41 -18 -12
1213 498 2 0.4238 -9.716250073680953 -10.05317353751197 11.710303717926347 -26 -42 24
332 65 1 -0.8476 -4.9925933607805435 -5.172387767169062 6.2754856905976695 -43 -18 -27
586 340 1 -0.8476 -6.6657723618815 -9.799006335810253 4.589640602038557 -41 -28 10
1189 293 1 -0.8476 -4.520753077292993 -7.453042448076248 5.0320579239901235 -31 -26 16
476 254 2 0.4238 -11.729389678589202 -9.558909829251316 10.622893822605526 -45 -12 11
650 344 2 0.4238 -11.988233044551624 -6.189247356739187 8.94485441682037 -46 -32 6
32 114 2 0.4238 -10.833626007542714 -7.343050082031162 6.755942817876555 -48 -29 11
31 114 2 0.4238 -11.71912157793607 -7.108201898365648 5.404100666137275 -48 -29 11
861 412 2 0.4238 -7.922232406572107 -6.822888301906163 6.345321063344503 -34 -34 -2
648 344 2 0.4238 -11.493507408426128 -7.69424602745373 9.341034777802665 -46 -32 6
423 259 2 0.4238 -10.897972075335135 -10.400584119151508 4.610276803507155 -33 -21 57
1193 293 2 0.4238 -4.554588920093792 -6.68339094674493 5.669656439440498 -31 -26 16
900 412 1 -0.8476 -8.365186383205998 -6.790683356625666 7.241309156368999 -34 -34 -2
587 340 2 0.4238 -7.130062595966414 -10.324565912104838 5.302565236143131 -41 -28 10
333 65 2 0.4238 -5.649566041866765 -4.6399108865971455 5.741729813961044 -43 -18 -27
1176 236 1 -0.8476 -5.098215077080646 -12.17950850138507 10.11354982743621 -45 -26 7
1214 498 1 -0.8476 -9.41501550680381 -10.15851034488108 10.762568535095298 -26 -42 24
1464 498 2 0.4238 -9.543673265540503 -11.10775326800113 10.475470887962747 -26 -42 24
162 487 2 0.4238 -4.365377182185672 -7.170992544159401 12.181361306003584 -33 -9 -10
133 158 1 -0.8476 -6.358483707719591 -12.253072251163251 12.324923497444782 -35 -68 11
1428 236 2 0.4238 -5.3940187882525175 -12.29761330411378 11.06149042772119 -45 -26 7
799 347 2 0.4238 -5.025032633413682 -9.091297137361654 10.373033902058229 -42 -36 13
782 418 1 -0.8476 -7.538977498193569 -8.745343881732216 8.757685038116563 -54 -39 5
1092 347 1 -0.8476 -5.0394654986505785 -9.546217829391283 9.482596708883808 -42 -36 13
1094 347 2 0.4238 -4.980413737875456 -10.535945948918133 9.612947247077027 -42 -36 13
1493 223 1 -0.8476 -8.108439665189314 -10.86611698914583 6.646305761148454 -52 -35 5
779 418 2 0.4238 -6.601552862219025 -9.072948334332915 8.875798363957003 -54 -39 5
120 194 2 0.4238 -8.56660953054814 -8.639725543252819 12.17602904283822 -86 -50 1
661 330 1 -0.8476 -5.168728062373874 -4.1356814452378625 11.454757517897956 -47 -17 -1
662 330 2 0.4238 -5.912351017615351 -4.421229211506205 10.850168967776245 -47 -17 -1
660 330 2 0.4238 -4.574412301683452 -4.91729517942648 11.644254331629934 -47 -17 -1
913 280 1 -0.8476 -11.889812622475164 -6.373733990636776 11.952778287682737 -35 -44 -5
1490 223 2 0.4238 -8.145091995202897 -10.206628485462396 7.397152985941016 -52 -35 5
912 280 2 0.4238 -11.595743334579712 -6.4953652122767505 11.004743773272779 -35 -44 -5
264 39 2 0.4238 -5.049007421463096 -6.423262195871301 9.21204837518405 -55 -37 -11
509 485 1 -0.8476 -5.372000251672182 -9.039553978402363 12.0267943954662 -41 -18 -12
1494 223 2 0.4238 -8.956423482379757 -10.817710017906407 6.11846079313905 -52 -35 5
783 418 2 0.4238 -8.144946132906743 -9.236095503171086 9.383787982603764 -54 -39 5
1433 482 1 -0.8476 -9.486936086046029 -0.18068562666861254 -6.39816884031143 -48 -36 -1
268 323 1 -0.8476 -11.390027245782484 1.7593499074882697 -8.70380735178246 -43 -25 -2
5 216 1 -0.8476 -6.2868040541862396 -2.3571504955299787 -8.79455314439463 -43 -22 4
165 482 2 0.4238 -10.443894522673256 -0.44028864917037325 -6.268259366961391 -48 -36 -1
837 192 2 0.4238 -10.726692518420391 2.1737655058533285 -12.117832291044408 -34 -37 -17
832 493 2 0.4238 -8.943792183216514 0.7941489779021591 -7.556422736483956 -31 -36 -21
265 323 2 0.4238 -12.02184214898764 1.3574250059296844 -8.041005258920661 -43 -25 -2
574 192 1 -0.8476 -11.53821040939879 2.386181398319424 -11.57344440250466 -34 -37 -17
29 323 2 0.4238 -10.448622373151801 1.5809931112012077 -8.417475796804087 -43 -25 -2
1432 482 2 0.4238 -8.992580180582785 -0.28729412466155324 -5.5354481964428235 -48 -36 -1
967 244 2 0.4238 -4.9110170560468545 -3.5759770225049703 -11.595371622437797 -65 -35 1
391 302 1 -0.8476 -7.387086237597927 -0.5383394963682786 -10.846108676413118 -38 -30 -12
575 192 2 0.4238 -11.315169415330512 2.3157116984141464 -10.601165179258675 -34 -37 -17
1053 243 2 0.4238 -10.44177555615009 -3.6951275306829032 -11.37878274896961 -42 -1 9
128 473 1 -0.8476 -5.405488117793436 3.366433302858672 -10.623592818016927 -66 -14 -3
392 302 2 0.4238 -7.474022129314067 0.28849928376685874 -11.401824595626799 -38 -30 -12
91 473 2 0.4238 -5.574685628789143 2.5669002359598974 -10.04726030813373 -66 -14 -3
70 79 2 0.4238 -9.376296774846576 2.988287502754112 -9.446515340042176 -52 -36 0
833 493 2 0.4238 -7.783450831056024 1.2623006605810048 -8.605791717028662 -31 -36 -21
127 473 2 0.4238 -5.947497629409309 3.2944717528647303 -11.460902291676392 -66 -14 -3
72 79 1 -0.8476 -9.145962927377756 3.7795668758788175 -10.01296336755432 -52 -36 0
1114 0 4 -1 -8.298745813547523 2.010901712897004 -12.244129722578062 0 -15 -18
4 216 2 0.4238 -5.766452273434069 -2.7822415750389435 -9.53520978867061 -43 -22 4
73 79 2 0.4238 -8.779078899728038 3.4668217068671883 -10.889106424472928 -52 -36 0
390 302 2 0.4238 -7.2999053399595875 -1.3346383402009465 -11.44473006385104 -38 -30 -12
8 216 2 0.4238 -6.866426205292566 -1.6326215585199755 -9.167562672329836 -43 -22 4
1426 129 2 0.4238 -12.26804487146697 0.33230638075850116 -6.114986974679544 -38 -37 -12
428 60 1 -0.8476 -4.859087063967529 -2.057440893720365 -6.5869956645596695 -43 -44 7
965 244 1 -0.8476 -4.660498155236672 -3.274093712836768 -10.67550929928835 -65 -35 1
834 493 1 -0.8476 -8.692888408983874 1.4725566987093153 -8.246966285872606 -31 -36 -21
427 60 2 0.4238 -5.393750051218097 -2.5143323096016417 -7.29792873685419 -43 -44 7
937 59 2 0.4238 -6.235311223015389 -2.249623706899918 -5.530174707042727 -21 -22 -13
845 175 2 0.4238 -7.39956672225052 -3.598002061002113 -8.057131353329293 -40 -8 7
881 175 1 -0.8476 -7.9260443107230145 -4.053159267309331 -7.339013872859641 -40 -8 7
931 450 2 0.4238 -9.448810816671116 -3.763322969236839 -6.13336133794303 -82 -52 -1
932 450 1 -0.8476 -10.205905627372008 -4.035399102461476 -5.539372968789351 -82 -52 -1
361 224 2 0.4238 -5.167764088793229 0.5671020021168118 -8.815432097770826 -36 -30 38
1492 166 2 0.4238 -7.608894608387122 -0.930095141492222 -4.352983200624884 -48 -8 45
1489 166 2 0.4238 -7.664081979647844 0.6971483693527336 -4.227419462569184 -48 -8 45
473 23 2 0.4238 -8.290721377310186 3.042296202757125 -7.614606435681394 -33 -65 24
664 267 2 0.4238 -6.1703876861939895 2.5077410753090206 -4.994486348845668 -39 -40 11
360 224 2 0.4238 -6.459520799365453 0.3950983581535219 -9.799562451422027 -36 -30 38
663 267 1 -0.8476 -7.125819102938951 2.245468112298937 -4.858826463015729 -39 -40 11
1299 90 1 -0.8476 -11.706163481624063 -1.9498736644368115 -5.852635147731989 -64 -56 14
335 117 1 -0.8476 -11.834616233357256 -2.4822523619378067 -11.321770579725166 -53 -37 -1
474 23 1 -0.8476 -8.27094432625491 3.763587263272111 -6.922227727216476 -33 -65 24
273 207 2 0.4238 -12.347228773604176 3.2273194834120336 -4.94361194926057 -54 -10 -1
665 267 2 0.4238 -7.710721114495535 2.7982481492248947 -5.45242881826285 -39 -40 11
362 224 1 -0.8476 -6.006923709943092 1.0001745085805371 -9.14452114074128 -36 -30 38
714 59 1 -0.8476 -7.159039780094608 -2.438112002172936 -5.196651290401086 -21 -22 -13
712 59 2 0.4238 -7.608327791958208 -3.0885068937918785 -5.809160050427046 -21 -22 -13
336 117 2 0.4238 -11.89947650694253 -1.4879798931560373 -11.406949282450354 -53 -37 -1
1511 90 2 0.4238 -11.230214066775217 -2.8105212254637753 -5.671531858363483 -64 -56 14
219 305 2 0.4238 -4.554687304433811 1.4870010238823692 -3.408591459175682 -30 -21 0
1100 106 2 0.4238 -11.535798672194534 -3.727553175777391 0.6078600732958943 -39 -38 -24
866 357 2 0.4238 -8.254563504154785 -3.963619609865278 -2.866192541658112 -38 -44 11
15 34 2 0.4238 -5.920392904778095 -2.6345564793442175 -2.0728379968429955 -25 -29 -2
1359 106 1 -0.8476 -11.513545175835878 -2.992816673584974 1.2858772309890192 -39 -38 -24
1491 166 1 -0.8476 -8.084482208740319 -0.15957422039690528 -3.928537599440796 -48 -8 45
389 213 2 0.4238 -10.291857119912432 0.22675898282666118 3.7312125040118858 -25 -51 24
740 394 1 -0.8476 -10.569743420213019 1.665673459264113 2.6806924333497015 -69 -23 13
867 357 2 0.4238 -7.453250316295339 -2.7094752485074807 -3.5383176619407646 -38 -44 11
561 66 2 0.4238 -4.585981020691329 1.334840853066181 1.5451478973115673 -39 -24 34
636 70 2 0.4238 -10.48357184001825 2.611520540572993 -0.9196655027953895 -50 -19 2
1059 310 2 0.4238 -7.517840432538938 3.120825097878523 -3.2815607494093726 -68 -35 -17
822 143 1 -0.8476 -5.916756186837246 2.3526158365945626 -0.5971358888376272 -33 -23 11
1089 310 1 -0.8476 -7.781835404727931 3.997402764554657 -2.8791203062123945 -68 -35 -17
522 66 2 0.4238 -4.272509834424785 -0.20315794941635268 1.0945609451906275 -39 -24 34
818 143 2 0.4238 -6.0286197827978025 2.5635278366471237 0.3739678759785825 -33 -23 11
1368 136 1 -0.8476 -7.686103427633369 -1.7131153718122363 2.2663950002649536 -62 -31 -1
609 179 1 -0.8476 -11.141989307847826 1.100461158421 -0.8006519562264796 -32 -29 40
13 34 2 0.4238 -4.629698776102432 -1.6500366585838702 -1.8951791807425238 -25 -29 -2
1505 169 1 -0.8476 -9.034149314884633 -2.34473583810278 -0.22974206540479258 -40 -51 18
1488 462 2 0.4238 -4.311967545727757 0.6300654656116862 -1.2040509815713563 -58 -21 0
146 112 2 0.4238 -4.289668610304178 -2.6163372153615665 1.4300553465638952 -41 -30 -7
914 179 2 0.4238 -11.06559976972378 0.10455589996521297 -0.8494095012792471 -32 -29 40
1506 169 2 0.4238 -8.838664543239897 -2.7335098180430766 -1.130119982244704 -40 -51 18
872 179 2 0.4238 -11.84242367047406 1.348669751573592 -0.1314553429451628 -32 -29 40
637 70 1 -0.8476 -10.153993839219723 3.55288353038976 -0.9921527465809419 -50 -19 2
488 394 2 0.4238 -11.53877497400091 1.4406638249135444 2.7826164590474125 -69 -23 13
640 70 2 0.4238 -9.601680093721523 3.649845434971173 -1.8201551488328604 -50 -19 2
1367 136 2 0.4238 -6.735570191183509 -1.894781819918565 2.014355457429696 -62 -31 -1
1369 136 2 0.4238 -8.271766061276075 -1.829780997622617 1.4642552141209073 -62 -31 -1
1460 169 2 0.4238 -10.0219560011163 -2.344905214507321 -0.07392838560622828 -40 -51 18
217 305 2 0.4238 -4.37418063088676 3.0593526919734604 -3.0062720991074094 -30 -21 0
741 394 2 0.4238 -10.478966134451337 2.600143010198643 2.3363582172711066 -69 -23 13
218 305 1 -0.8476 -4.641466574910515 2.4283918208786908 -3.734617244171755 -30 -21 0
868 357 1 -0.8476 -7.658588750982894 -3.182161645302253 -2.6813207363976215 -38 -44 11
107 112 2 0.4238 -5.1010848017373505 -2.23773712121789 0.06440571217777524 -41 -30 -7
825 48 1 -0.8476 -9.719267394554262 -3.8760400420865047 3.3187941075225833 -44 -29 21
147 112 1 -0.8476 -5.038484923063565 -2.0740518309620555 1.0489505548349225 -41 -30 -7
824 48 2 0.4238 -10.369637075715751 -3.594365139828245 2.613302235539937 -44 -29 21
757 446 1 -0.8476 -5.573264898714009 2.5634511437886474 2.132626119505627 -23 -44 21
801 463 1 -0.8476 -7.594963663827848 1.0244079289756503 2.701862589747453 -45 -28 9
823 143 2 0.4238 -6.428351023173964 1.5225093810832515 -0.8190232916285645 -33 -23 11
706 137 2 0.4238 -4.423996907673606 3.4414893097974737 -0.2497195569969648 -56 -49 -8
756 446 2 0.4238 -5.218088437116156 3.1031329813014388 2.8959303219836787 -23 -44 21
753 463 2 0.4238 -7.52542310837387 0.02748053998011457 2.6652552590796432 -45 -28 9
1419 464 2 0.4238 -7.460820549760783 2.363951573626304 4.088122230149018 -52 -60 2
502 446 2 0.4238 -6.505927925409817 2.2675747268585926 2.3391132813977595 -23 -44 21
804 463 2 0.4238 -8.558162778771262 1.29237808789469 2.67996247015542 -45 -28 9
12 34 1 -0.8476 -4.968233512308597 -2.5828583424611775 -1.7715741090243942 -25 -29 -2
1479 481 1 -0.8476 -7.423272004859979 -0.023029031780399833 -1.217089335617727 -27 -50 -12
413 403 2 0.4238 -12.303863826988392 -1.669304582568584 -2.031996037564488 -54 -28 4
1319 306 1 -0.8476 -12.020606545012042 2.1020921492074223 -3.742604171889111 -56 -18 4
1217 25 2 0.4238 -10.079877770770773 -1.312193113540184 -3.248250261890517 -42 -19 -7
1317 306 2 0.4238 -11.425196352600825 2.155548676967724 -2.940937626538007 -56 -18 4
1180 25 2 0.4238 -11.514106992197258 -1.7338933948563717 -3.905432332013742 -42 -19 -7
1218 25 1 -0.8476 -11.041430400381579 -1.5064483149019452 -3.0540302165295774 -42 -19 -7
1264 481 2 0.4238 -7.8019511565563135 -0.5701455741179178 -0.4705605701675246 -27 -50 -12
1478 481 2 0.4238 -8.122777021623676 0.11308386601592701 -1.918663141785773 -27 -50 -12
667 132 1 -0.8476 -12.163845694755045 -3.2270637731729543 10.44443501620485 -45 -41 21
751 122 2 0.4238 -10.81658646373981 -2.8226661309016645 6.494564593284139 -22 -42 7
258 461 1 -0.8476 -8.786267414897868 -2.3848594494916604 6.951812779155134 -36 -43 -16
596 28 1 -0.8476 -6.151502066099097 -2.8686721842860603 7.637627101990272 -35 -63 -4
668 132 2 0.4238 -11.891377379210345 -3.8450460306043492 11.181930068914216 -45 -41 21
1010 231 2 0.4238 -6.036655383175833 1.7996160903990663 11.904725119540043 -33 -12 9
1510 139 2 0.4238 -6.407386507076089 -0.5215383619818912 6.081154260259019 -23 -35 -12
595 28 2 0.4238 -5.781053424704436 -3.7426678630345958 7.3230812493820565 -35 -63 -4
656 213 2 0.4238 -9.800832500045967 -0.027500866392554002 5.26776059018626 -25 -51 24
1509 139 1 -0.8476 -6.497447890591857 -0.7514400611021834 5.112095874854791 -23 -35 -12
293 196 1 -0.8476 -9.608201211411235 -0.2049024256720262 10.914321989897253 -60 -12 -3
75 191 2 0.4238 -5.980439322901633 -0.11989739879047434 10.613862391464284 -54 -55 6
260 461 2 0.4238 -8.899964077897849 -1.5957760614244432 7.555518616956224 -36 -43 -16
1465 0 3 1 -4.538321000482701 -1.1465553733897043 8.433251665333202 -4 -1 -9
257 461 2 0.4238 -9.018917784694441 -3.2209434798023544 7.448680615773757 -36 -43 -16
74 191 1 -0.8476 -6.243476451310181 -0.8912325499253946 10.034298880684918 -54 -55 6
1508 139 2 0.4238 -5.605734111681949 -0.6721704837109961 4.666446982444388 -23 -35 -12
597 28 2 0.4238 -7.128147514476119 -2.8254672229791584 7.427064191636504 -35 -63 -4
1343 281 2 0.4238 -11.788560597419798 1.3234041298951809 6.3789067507923 -56 -46 4
1421 464 2 0.4238 -8.602479057695366 2.982436096519116 5.078488475378986 -52 -60 2
657 213 1 -0.8476 -9.942899110003802 -0.45452929173061385 4.3747299159986355 -25 -51 24
76 191 2 0.4238 -6.889984639381306 -1.473405352478542 10.527393510449052 -54 -55 6
1342 281 1 -0.8476 -11.957732838673362 0.6959975252852768 7.1390262791156545 -56 -46 4
1420 464 1 -0.8476 -7.62652932733998 2.977196617945671 4.860463399124736 -52 -60 2
1371 292 1 -0.8476 -10.051775590707287 2.4837175323128005 5.686450464668553 -36 -23 -17
639 89 1 -0.8476 -6.545971741938279 -3.723752768264456 4.292165068078674 -27 -33 8
798 122 2 0.4238 -12.026797998009076 -2.9213798221751937 5.402605049560272 -22 -42 7
796 122 1 -0.8476 -11.778277990934868 -2.61104427394449 6.320193874583403 -22 -42 7
292 196 2 0.4238 -9.305687728034737 0.5911533235221977 11.4385559289573 -60 -12 -3
638 89 2 0.4238 -5.705138274112836 -3.1869907072106667 4.362347804025536 -27 -33 8
1157 3 1 -0.8476 -6.828791962493231 0.4183228208101255 7.8069079943475685 -57 -20 25
242 85 2 0.4238 -10.512368082310267 0.12632132644045235 7.713932356920939 -38 -50 9
20 0 3 1 -8.417525274455539 -2.195000535667379 4.437713291000552 -10 -16 -17
820 431 2 0.4238 -4.266625115968207 3.398364182896536 5.224379790517254 -65 -35 -9
957 307 1 -0.8476 -10.130910175010323 3.214045905447211 9.399891065114385 -31 -14 10
1130 251 1 -0.8476 -5.153916479435964 2.616280297706293 6.45417039902043 -25 -45 -10
948 41 1 -0.8476 -4.821255531263616 3.6322256748150625 9.76524279094015 -45 -40 1
1172 251 2 0.4238 -5.398125228265119 2.409749301956438 7.401665503806509 -25 -45 -10
1370 292 2 0.4238 -10.174399389011711 2.8998994084677623 6.587447708455716 -36 -23 -17
1013 231 1 -0.8476 -5.3108689168422885 1.4406451879661137 11.317857181238438 -33 -12 9
909 307 2 0.4238 -9.352609980467943 2.6669831129546147 9.708128870707739 -31 -14 10
959 307 2 0.4238 -10.967157570954983 2.669330715401685 9.463257002191998 -31 -14 10
1015 231 2 0.4238 -5.223454732592915 2.0170958209629504 10.505389510757887 -33 -12 9
1128 251 2 0.4238 -5.965653145401245 2.5360023822632005 5.8756558256473745 -25 -45 -10
3 85 2 0.4238 -9.594791649397468 -0.14506064803247654 9.037237794835224 -38 -50 9
256 196 2 0.4238 -10.580375118979102 -0.36616125649430487 11.084361461099778 -60 -12 -3
710 132 2 0.4238 -12.313703792342611 -3.7529514215980093 9.607162621858187 -45 -41 21
241 85 1 -0.8476 -9.591015851530749 -0.08708350891130046 8.03890712824613 -38 -50 9
1159 3 2 0.4238 -6.812851388378215 -0.23438989752205153 8.56437235291488 -57 -20 25
18 249 2 0.4238 -8.699309541096587 -3.1041901273578336 11.777202298246667 -37 -42 -13