LAMMPS data file via write_data, version 28 Oct 2021, timestep = 7000

1518 atoms
11 atom types
1000 bonds
1 bond types
500 angles
1 angle types

-12.453353438926827 12.453353438926827 xlo xhi
-12.453353438926827 12.453353438926827 ylo yhi
-12.453353438926827 12.453353438926827 zlo zhi

Masses

1 15.9994
2 1.00794
3 22.989769
4 35.453
5 60
6 60
7 60
8 15.9994
9 1.00794
10 22.989769
11 35.453

PairIJ Coeffs # lj/cut/coul/long

1 1 0.155354 3.169 9
1 2 0 0 9
1 3 0.234061 2.66425 9
1 4 0.044567 3.99975 9
1 5 0 0 9
1 6 0 0 9
1 7 0 0 9
1 8 0.155354 3.169 9
1 9 0 0 9
1 10 0.234061 2.66425 9
1 11 0.044567 3.99975 9
2 2 0 0 9
2 3 0 1.07975 9
2 4 0 2.41525 9
2 5 0 0 9
2 6 0 0 9
2 7 0 0 9
2 8 0 1.5845 9
2 9 0 0 9
2 10 0 1.07975 9
2 11 0 2.41525 9
3 3 0.352644 2.1595 9
3 4 0.067146 3.495 9
3 5 0 0 9
3 6 0 0 9
3 7 0 0 9
3 8 0.234061 2.66425 9
3 9 0 0 9
3 10 0.352644 2.1595 9
3 11 0.067146 3.495 9
4 4 0.0127851 4.8305 9
4 5 0 0 9
4 6 0 0 9
4 7 0 0 9
4 8 0.044567 3.99975 9
4 9 0 0 9
4 10 0.067146 3.495 9
4 11 0.0127851 4.8305 9
5 5 0 0 9
5 6 0 0 9
5 7 0 0 9
5 8 0 1.5845 9
5 9 0 0 9
5 10 0 1.07975 9
5 11 0 2.41525 9
6 6 0 0 9
6 7 0 0 9
6 8 0 1.5845 9
6 9 0 0 9
6 10 0 1.07975 9
6 11 0 2.41525 9
7 7 0 0 9
7 8 0 1.5845 9
7 9 0 0 9
7 10 0 1.07975 9
7 11 0 2.41525 9
8 8 0.155354 3.169 9
8 9 0 0 9
8 10 0.234061 2.66425 9
8 11 0.044567 3.99975 9
9 9 0 0 9
9 10 0 1.07975 9
9 11 0 2.41525 9
10 10 0.352644 2.1595 9
10 11 0.067146 3.495 9
11 11 0.0127851 4.8305 9

Bond Coeffs # harmonic

1 100000 1

Angle Coeffs # harmonic

1 100000 109.47

Atoms # full

197 174 2 0.4238 -7.431599993623427 -9.002057436513912 -5.107466308010485 -78 -35 -4
1451 71 2 0.4238 -4.910765454913207 -11.063069227886443 -5.376729089087668 -50 -42 -15
974 208 2 0.4238 -7.746326937855325 -9.137406525476127 -7.592828768824631 -42 -17 -31
1410 71 1 -0.8476 -4.151356037364545 -11.350190752410608 -4.792875736189765 -50 -42 -15
45 94 2 0.4238 -4.828443224723945 -8.924102607327717 -6.4097602102692255 -28 -5 12
660 330 2 0.4238 -7.39594950772678 -4.4099971766433494 -9.966443295704625 -47 -17 0
889 257 2 0.4238 -6.743906337192882 -6.033430451304006 -6.918618881375973 -37 -25 -12
973 208 1 -0.8476 -8.40458627162485 -8.718173524369787 -8.218100135622205 -42 -17 -31
890 257 1 -0.8476 -5.765274864548452 -5.880824771044878 -6.78071409264688 -37 -25 -12
1112 1 2 0.4238 -5.77071749026191 -6.138922479836392 -4.764381691053056 -50 -35 16
150 308 1 -0.8476 -8.828064626236596 -5.895782236073946 -7.2939610945453195 -66 -53 -2
148 308 2 0.4238 -8.643311741831987 -5.938447772556619 -8.275832683620408 -66 -53 -2
44 94 2 0.4238 -4.821680933096411 -7.291772511242225 -6.456103234225233 -28 -5 12
762 326 2 0.4238 -10.908990412195484 -7.429335130666838 -5.660237179019318 -22 -2 6
932 450 1 -0.8476 -10.737397588825184 -4.494616877589919 -4.379972383961471 -82 -52 -1
892 257 2 0.4238 -5.527184635731404 -4.955822223608937 -7.076870935645434 -37 -25 -12
972 208 2 0.4238 -9.279051460249107 -8.595949942271785 -7.748634598341074 -42 -17 -31
758 326 2 0.4238 -10.51291725688704 -8.897957007542475 -6.2543506698499645 -22 -2 6
760 326 1 -0.8476 -10.245536432721154 -7.935308503023166 -6.211458451913705 -22 -2 6
149 308 2 0.4238 -9.632611252014314 -6.450492575832839 -7.08176837758123 -66 -53 -2
195 174 2 0.4238 -8.819388764073503 -8.151537012915028 -4.975742542110015 -78 -35 -4
90 94 1 -0.8476 -4.283325078935611 -8.11584649736064 -6.632457358718822 -28 -5 12
196 174 1 -0.8476 -7.949845404107243 -8.369063322796976 -4.532344210164346 -78 -35 -4
1383 0 4 -1 -6.813958195439208 -10.615581795988488 -6.384486736722316 -10 -15 -21
1110 1 2 0.4238 -6.899301496056425 -7.161578192297769 -4.175172094804687 -50 -35 16
1139 175 2 0.4238 -8.667583084605019 -4.443749283017356 -6.587216794393681 -40 -8 7
850 449 2 0.4238 -7.631389288593775 -7.342042464387283 -9.80663434906641 -45 -43 -3
348 206 1 -0.8476 -7.303245682462547 -11.977593297062352 -11.472693507615231 -57 -20 -20
161 487 1 -0.8476 -4.502698079555909 -4.549916650252542 -10.89189688694112 -33 -9 -9
328 69 2 0.4238 -11.901121672723947 -4.564162745976926 -5.456131317915249 -15 -24 8
1464 498 2 0.4238 -7.926081867123379 -10.35323249496888 -11.198248248020295 -26 -42 25
1293 168 1 -0.8476 -11.464875507425393 -5.412273944865419 -8.800366465492399 -45 -45 -8
162 487 2 0.4238 -4.776873447322416 -5.501814262338724 -10.754986487474465 -33 -9 -9
1052 243 2 0.4238 -10.7734149318866 -4.262739289173842 -9.934637621581057 -42 -1 9
476 254 2 0.4238 -9.314409239557369 -8.984229321583816 -12.128438970214333 -45 -12 12
1014 348 2 0.4238 -11.854937788852654 -10.145822975469304 -7.941548770339715 -62 -18 17
114 206 2 0.4238 -6.465799548176149 -12.219422664439199 -11.962824339098892 -57 -20 -20
228 254 2 0.4238 -10.654588828121462 -8.109430168340243 -12.452999956495729 -45 -12 12
851 449 1 -0.8476 -7.825126059405107 -6.375664850974781 -9.975768008341458 -45 -43 -3
849 449 2 0.4238 -7.992844707233199 -6.235149659945412 -10.951550662360487 -45 -43 -3
626 319 2 0.4238 -4.220525178502209 -8.482599651323092 -10.6206720279086 -46 -7 -1
1289 168 2 0.4238 -11.459057891115005 -5.337389618798276 -7.80317833738169 -45 -45 -8
1011 348 1 -0.8476 -11.555346095107147 -10.487999299148337 -7.050939029077456 -62 -18 17
874 68 1 -0.8476 -10.353418595858955 -11.763287463459775 -10.17863351080717 -59 -21 0
1012 348 2 0.4238 -12.352845109112314 -10.642069394066194 -6.467601014019522 -62 -18 17
835 68 2 0.4238 -9.823972857777186 -10.935030466912629 -10.362218019565141 -59 -21 0
1214 498 1 -0.8476 -8.394058124958079 -9.540785658612602 -10.85046391922138 -26 -42 25
1213 498 2 0.4238 -8.250485755803325 -9.470385663987289 -9.863318138816584 -26 -42 25
1292 168 2 0.4238 -12.071383666763639 -6.158409068339042 -9.07505857786224 -45 -45 -8
873 68 2 0.4238 -11.29541399611862 -11.513800581222164 -9.954074318738552 -59 -21 0
1232 500 2 0.4238 -5.6587168470611156 -6.055102015293722 1.1244195812906135 -60 -27 6
734 173 1 -0.8476 -11.18911657923192 -7.7838852900801685 -0.38686945368431935 -34 -23 -19
1233 500 1 -0.8476 -5.203757132385486 -6.739439530808191 0.5545778041664313 -60 -27 6
1359 106 1 -0.8476 -12.03708134759853 -4.261524293819589 1.593146571892122 -39 -38 -24
877 159 2 0.4238 -11.249951270474764 -5.598130444204548 2.0477354586846257 -22 -34 31
791 229 1 -0.8476 -7.256519223559143 -5.557955809046416 2.47305858873362 -52 -39 -7
80 264 1 -0.8476 -9.01038128841546 -11.85042253594137 4.095811291046539 -47 -9 35
794 229 2 0.4238 -6.719382807594666 -5.136050901107748 3.203473681078375 -52 -39 -7
673 193 2 0.4238 -8.58354960516122 -10.652975182356498 2.6922803507943787 -50 -34 0
454 474 1 -0.8476 -4.197619097045852 -8.660799153853791 2.2813766902868196 -36 -32 11
1134 159 2 0.4238 -11.039184557642717 -7.0765527103540515 1.3870239933081745 -22 -34 31
732 173 2 0.4238 -11.951240711508943 -7.314578739435318 -0.8329006702154462 -34 -23 -19
790 229 2 0.4238 -7.928046462277757 -4.9006896509933515 2.1308920100802275 -52 -39 -7
717 193 1 -0.8476 -8.1179805612387 -10.281303190643452 1.88907971418101 -50 -34 0
200 405 2 0.4238 -11.717559342500802 -6.858531973808266 4.10940203937008 -42 -34 -6
1412 36 2 0.4238 -6.382321025532805 -7.384156160481344 4.10118428956333 -58 -19 28
716 193 2 0.4238 -8.249462555039752 -10.897670348278668 1.1126584442270833 -50 -34 0
1007 173 2 0.4238 -10.453385896680004 -7.928257387903924 -1.048596509904307 -34 -23 -19
1414 36 2 0.4238 -4.835142287902867 -7.805560979757093 3.792396372603436 -58 -19 28
451 474 2 0.4238 -4.52762930574853 -7.880476311474728 1.75013742702723 -36 -32 11
876 159 1 -0.8476 -10.929654733486956 -6.53015007371992 2.217369031571069 -22 -34 31
1460 169 2 0.4238 -10.082118281050784 -4.226752428493011 0.8410350958467117 -40 -51 18
1329 402 1 -0.8476 -4.157796889308955 -4.652435210313403 2.321537676358556 -35 -24 0
1104 476 2 0.4238 -11.96809301038186 -10.929184406000932 -0.17657787800058422 -43 -10 -21
420 341 2 0.4238 -4.873485920198938 -11.807579825795107 2.190054965702002 -14 -28 35
418 341 1 -0.8476 -4.499948274716198 -11.274599967747829 2.9492833078697682 -14 -28 35
419 341 2 0.4238 -4.384672462296001 -10.32318997046389 2.6637029341098657 -14 -28 35
1108 476 2 0.4238 -12.01233861590047 -9.37397243987903 -0.6726153329807278 -43 -10 -21
1236 376 2 0.4238 -5.934508401392142 -5.0410893984279825 -3.0631207626744494 -17 -32 30
235 495 1 -0.8476 -11.242914128020711 -12.385485738965503 0.6738436022338217 -61 -65 4
36 11 1 -0.8476 -8.294400524937743 -11.78381322839995 -0.35109041598055235 -23 -26 1
1137 217 1 -0.8476 -10.388729545484763 -5.473716893144172 -2.047815490904073 -57 -26 9
171 258 2 0.4238 -8.364716330061631 -7.961908869634652 -1.2585506096900119 -54 -18 1
1235 376 1 -0.8476 -5.688550221543001 -4.19641024024132 -2.587677369863991 -17 -32 30
21 47 2 0.4238 -7.399646904398241 -9.063204789019654 0.5675008951502836 -39 -59 14
367 436 2 0.4238 -7.940297655867347 -8.833774037635594 2.706014270366497 -38 -27 15
485 11 2 0.4238 -8.146841853756841 -11.560158667689958 -1.3145379063365983 -23 -26 1
884 450 2 0.4238 -10.30756491872034 -4.980114617552581 -3.618682954727907 -82 -52 -1
1384 217 2 0.4238 -11.36320332444975 -5.562848736712424 -1.8417039007846725 -57 -26 9
1135 217 2 0.4238 -9.958343185439938 -6.375958133975448 -2.0203541413494612 -57 -26 9
1364 1 1 -0.8476 -6.18158572511324 -6.509321713630534 -3.931304548013072 -50 -35 16
35 11 2 0.4238 -7.493844905376717 -12.26529596867225 0.005716219848634907 -23 -26 1
172 258 1 -0.8476 -8.918769218911631 -7.628250684196321 -2.0212584921737804 -54 -18 1
411 436 1 -0.8476 -7.890507019685198 -8.087479308307774 3.369783933828135 -38 -27 15
19 47 1 -0.8476 -7.012528562170946 -8.7049113459653 -0.2820814602407449 -39 -59 14
1234 500 2 0.4238 -4.614334240102033 -6.280859294480791 -0.11048678715250837 -60 -27 6
580 234 2 0.4238 -5.005148055097913 -11.616901786948063 -1.2133622126238564 -21 -48 5
1049 432 1 -0.8476 -7.792428866313826 -10.883593676363994 -2.7988366650445933 -44 -19 -13
920 42 1 -0.8476 -4.431537149253963 -8.110101863127074 -2.7958250007129077 -57 -37 9
922 42 2 0.4238 -4.683870523439823 -9.021835805214778 -2.4716418488708047 -57 -37 9
578 234 1 -0.8476 -5.065867842068364 -11.163166760047872 -2.1024413443443883 -21 -48 5
236 495 2 0.4238 -10.27636805573607 -12.445024305816391 0.42430490156598033 -61 -65 4
17 47 2 0.4238 -6.287662415418646 -8.050116663844724 -0.06798120614915426 -39 -59 14
1286 432 2 0.4238 -8.148974360005418 -11.239883638317002 -3.662525300421816 -44 -19 -13
1411 71 2 0.4238 -4.4314709567562645 -11.302313417014627 -3.8340903617088316 -50 -42 -15
170 258 2 0.4238 -8.456158344544994 -7.832942464726137 -2.8838812310625617 -54 -18 1
410 436 2 0.4238 -7.762787834294803 -7.220656896102341 2.8877752062941404 -38 -27 15
1051 432 2 0.4238 -7.922272107406962 -9.892521406741896 -2.768145572615561 -44 -19 -13
966 42 2 0.4238 -5.2083824716625475 -7.699167974621032 -3.272973193567802 -57 -37 9
579 234 2 0.4238 -6.0096691785984495 -11.198784675181006 -2.43106871698701 -21 -48 5
649 344 1 -0.8476 -9.38256789260846 -6.846038777472063 9.02367407980143 -46 -32 6
645 80 2 0.4238 -10.980274324612886 -9.991400647822651 9.493918097745501 -36 -13 17
547 486 2 0.4238 -6.1383199877563746 -10.656148371241768 5.4297890238332425 -56 -32 30
544 486 2 0.4238 -5.8965826238142665 -12.098396461661487 6.156547645416472 -56 -32 30
546 486 1 -0.8476 -6.583687014016194 -11.419450274568003 5.8978097268363125 -56 -32 30
227 254 1 -0.8476 -9.91444954165941 -8.648752830606712 12.052022167365026 -45 -12 11
120 194 2 0.4238 -8.652417595871071 -6.911812236624759 11.62985381530491 -86 -50 1
782 418 1 -0.8476 -6.09010811677823 -10.265218365749451 9.711999116325375 -54 -39 5
1076 204 2 0.4238 -6.290011633487779 -5.709525153489763 8.620566376858212 -22 -12 -2
333 65 2 0.4238 -4.272863987103143 -7.786567378496632 10.985100068397605 -43 -18 -27
31 114 2 0.4238 -7.86137417650834 -11.14109840996207 7.003138222536327 -48 -29 11
531 104 2 0.4238 -11.596223611097932 -10.442456200806264 5.923871485911841 -47 -42 -11
122 194 1 -0.8476 -8.046875234698508 -6.291755208300564 12.128726071301317 -86 -50 1
30 114 1 -0.8476 -8.517086036663033 -10.712843726341223 7.624962781230932 -48 -29 11
1324 272 2 0.4238 -4.326873233298917 -5.158617229425627 6.49608573816908 -43 -45 10
1493 223 1 -0.8476 -4.218482038124783 -10.495275771995981 7.631904855147246 -52 -35 5
650 344 2 0.4238 -10.08906165579096 -6.173247073312464 8.804029820888795 -46 -32 6
646 80 1 -0.8476 -10.995281379516571 -9.018743484361526 9.725734481910978 -36 -13 17
776 131 1 -0.8476 -10.702322356758847 -9.111674863677656 7.0960605077423775 -57 -41 -14
32 114 2 0.4238 -8.070317650708162 -10.51848501196135 8.498260212009727 -48 -29 11
648 344 2 0.4238 -9.811833205347334 -7.7264969828639645 9.225045474364327 -46 -32 6
644 80 2 0.4238 -10.421422874131713 -8.858618265159619 10.528898433594344 -36 -13 17
670 241 1 -0.8476 -12.39600992081708 -6.9042317462602805 12.267269998305908 -67 -35 22
775 131 2 0.4238 -9.811309986480413 -9.544082385344966 7.234431883277805 -57 -41 -14
1074 204 2 0.4238 -7.737495610192202 -6.01722768910908 9.311076472651598 -22 -12 -2
297 121 2 0.4238 -5.833684595703728 -11.884494795536323 10.518708352445676 -62 -38 -6
1075 204 1 -0.8476 -7.02372877123361 -5.3285951158343146 9.183218261390776 -22 -12 -2
774 131 2 0.4238 -11.129181733734095 -8.936497506273852 7.983263534053888 -57 -41 -14
783 418 2 0.4238 -5.83818771305085 -9.74111872354839 8.898438212740563 -54 -39 5
506 485 2 0.4238 -6.85148857585012 -7.761173748451784 11.749702515605525 -41 -18 -12
123 194 2 0.4238 -8.372579083739167 -5.352058849265211 12.024258280136182 -86 -50 1
779 418 2 0.4238 -6.119552685375657 -9.656409713538896 10.50478587970773 -54 -39 5
249 485 2 0.4238 -5.371303041487837 -8.223508460104382 12.261553171158303 -41 -18 -12
509 485 1 -0.8476 -6.028600491144005 -8.276251521105635 11.509753235786723 -41 -18 -12
1325 40 1 -0.8476 -12.326973004132897 -6.348818206245273 7.169816531165301 -26 -28 -1
77 264 2 0.4238 -9.900182397643157 -11.536963472239746 4.427508196068112 -47 -9 35
198 405 2 0.4238 -11.451703677151283 -8.31857978229601 4.79078001776328 -42 -34 -6
1440 154 2 0.4238 -10.359755839555076 -12.13092612174793 8.647658381933978 -33 -29 2
1326 40 2 0.4238 -12.238644544264817 -6.724626529765117 6.24732425037155 -26 -28 -1
309 264 2 0.4238 -8.29920285964889 -11.583020801247692 4.746001472221968 -47 -9 35
635 89 2 0.4238 -6.173264781740824 -4.546417438691471 5.496945675931572 -27 -33 8
317 483 2 0.4238 -8.95158071440629 -7.088131132794041 6.922829521714002 -38 -30 17
902 412 2 0.4238 -4.573773413037366 -7.059951079087846 7.61669437647098 -34 -34 -2
1439 154 1 -0.8476 -10.80654348748373 -11.579313694809981 9.352023585640003 -33 -29 2
422 259 2 0.4238 -9.635894180348469 -12.12055137271198 6.680069918587021 -33 -21 57
315 483 1 -0.8476 -8.582662549086987 -6.761148334096829 6.052767814598235 -38 -30 17
900 412 1 -0.8476 -5.254132631724052 -6.45058249224021 7.2095001635269345 -34 -34 -2
314 483 2 0.4238 -8.673050704354354 -7.478374501375179 5.361795785022183 -38 -30 17
199 405 1 -0.8476 -12.122195978830735 -7.5881298862187245 4.660747383289193 -42 -34 -6
824 48 2 0.4238 -9.459875432075567 -5.006070871625341 4.27302698971898 -44 -29 21
173 154 2 0.4238 -11.437102322009645 -12.153138495354224 9.874657134140831 -33 -29 2
1413 36 1 -0.8476 -5.437287523016289 -7.312305168677718 4.420206143993449 -58 -19 28
861 412 2 0.4238 -5.520956259777094 -6.801336468621879 6.311835386969451 -34 -34 -2
786 104 1 -0.8476 -11.789728731574602 -11.184718638942769 5.282288994966043 -47 -42 -11
1455 315 2 0.4238 -5.177655265134004 2.4346685881074954 -6.337236113352949 -55 -26 -1
268 323 1 -0.8476 -11.099980662140515 1.3381987637645913 -7.56028201831682 -43 -25 -2
127 473 2 0.4238 -7.010507855878603 2.6409720223506916 -9.929255462671241 -66 -14 -3
837 192 2 0.4238 -10.021744343269113 2.431300434993309 -10.444702609660144 -34 -37 -17
533 207 1 -0.8476 -11.961024797855346 3.128749826338135 -4.5117114505739755 -54 -10 -1
73 79 2 0.4238 -11.816452865058315 3.3744242425977244 -7.458538379552848 -52 -36 0
575 192 2 0.4238 -10.95567486721533 2.0200988007250675 -9.169797875091357 -34 -37 -17
265 323 2 0.4238 -12.081559786315818 1.1484217490706232 -7.537643077433407 -43 -25 -2
128 473 1 -0.8476 -6.260620514615162 2.89784844132517 -9.319575990913783 -66 -14 -3
1458 315 1 -0.8476 -4.248638323468139 2.7848910543096164 -6.217665632136955 -55 -26 -1
965 244 1 -0.8476 -5.696081115332245 -3.478144560855629 -7.805173704184432 -65 -35 1
5 216 1 -0.8476 -6.083621144224002 -0.43933102302112026 -7.976577877256599 -43 -22 4
1426 129 2 0.4238 -11.755391247617531 0.06595965541871252 -4.675365625395826 -38 -37 -12
1425 129 1 -0.8476 -10.977604850152455 0.6903390565551462 -4.6030865971182955 -38 -37 -12
1511 90 2 0.4238 -12.270476557602134 -2.6031364446462657 -4.416969342645489 -64 -56 14
8 216 2 0.4238 -5.197173076896439 -0.3652769391050974 -8.433471254163194 -43 -22 4
573 207 2 0.4238 -11.528697179284432 3.6638040418573556 -5.237545884704276 -54 -10 -1
4 216 2 0.4238 -6.810921094241137 -0.4657801400261974 -8.662406837074796 -43 -22 4
574 192 1 -0.8476 -10.912383532744183 2.5619881175414 -10.009147380684302 -34 -37 -17
1433 482 1 -0.8476 -8.613016935974072 1.6126825613739193 -4.192117458831506 -48 -36 -1
29 323 2 0.4238 -10.677123963029928 1.008131575691797 -6.716318967791285 -43 -25 -2
967 244 2 0.4238 -6.23245970930325 -3.489998006477075 -8.649083017689335 -65 -35 1
165 482 2 0.4238 -9.50938771411608 1.1980722244532576 -4.34909650916552 -48 -36 -1
968 244 2 0.4238 -5.801195378935542 -2.5909654322876072 -7.3558520969070305 -65 -35 1
661 330 1 -0.8476 -7.309152658366194 -3.439609540245087 -9.740966971235805 -47 -17 0
662 330 2 0.4238 -8.05194115342567 -3.172315112906409 -9.127090424155938 -47 -17 0
1423 129 2 0.4238 -11.278613352223493 1.622463942309908 -4.804486433534021 -38 -37 -12
931 450 2 0.4238 -10.035653292282397 -4.020141963969733 -4.911436523096636 -82 -52 -1
937 59 2 0.4238 -6.885139134143727 -1.8033055555737185 -4.3669501354270945 -21 -22 -13
712 59 2 0.4238 -7.9879943470381685 -2.986828901756269 -4.589830517575011 -21 -22 -13
881 175 1 -0.8476 -8.724684640090203 -3.6033205208057044 -6.048287227151806 -40 -8 7
845 175 2 0.4238 -8.942820386894564 -2.8353544449077734 -6.650508726122697 -40 -8 7
1015 231 2 0.4238 -5.325438480690617 1.37724483053473 -12.329555480130137 -33 -12 10
961 433 1 -0.8476 -11.960605529329353 1.2194067107642503 -12.151519625099285 -33 -12 -20
394 10 2 0.4238 -4.6876356309114735 3.4522274321953095 -10.175360058233696 -35 -52 2
91 473 2 0.4238 -6.411715410695634 2.494501725214679 -8.417075429039496 -66 -14 -3
448 465 2 0.4238 -11.550011659201793 4.13469677181663 -10.20933546644553 -33 -36 23
1010 231 2 0.4238 -6.858313465859658 0.9340804583221143 -11.98229081879995 -33 -12 10
399 381 2 0.4238 -8.51795353849195 3.8846841877730096 -8.460997819745248 -17 -27 -29
426 60 2 0.4238 -4.574019978136876 -1.4633944376534433 -5.25893361275343 -43 -44 7
361 224 2 0.4238 -4.615330334550388 -2.5617378723887434 -9.94018854037159 -36 -30 38
832 493 2 0.4238 -7.5671499231200725 1.839138675561916 -6.109000757864465 -31 -36 -21
360 224 2 0.4238 -4.7857750598958555 -1.1533715383182024 -10.748982341503211 -36 -30 38
391 302 1 -0.8476 -7.899332055808063 -0.720049160158025 -9.971671337520323 -38 -30 -12
362 224 1 -0.8476 -4.29188974377667 -1.6183764190859584 -10.014221968708243 -36 -30 38
336 117 2 0.4238 -10.935793016832177 -1.7440672591056696 -7.513679009792679 -53 -37 -1
335 117 1 -0.8476 -9.950915185646734 -1.5970199540108556 -7.6054275488529814 -53 -37 -1
958 433 2 0.4238 -11.602075604457657 1.9496622139988755 -11.56996237549405 -33 -12 -20
427 60 2 0.4238 -5.543482319369175 -0.6338544757033002 -6.278100548005452 -43 -44 7
1013 231 1 -0.8476 -5.95390276456005 0.6032852739409886 -12.251810583299989 -33 -12 10
371 117 2 0.4238 -9.78567252319083 -0.728005322471871 -8.07183299990658 -53 -37 -1
390 302 2 0.4238 -7.623196537652474 -1.6015257691378189 -10.354781651261337 -38 -30 -12
834 493 1 -0.8476 -6.82096705025768 1.7660822262925162 -6.770740153524229 -31 -36 -21
1053 243 2 0.4238 -10.312057337450344 -2.7069185012760375 -10.117027445033926 -42 -1 9
18 249 2 0.4238 -9.948730877951487 -3.9774873678117206 -12.404327261536846 -37 -42 -12
1114 0 4 -1 -8.386922504106952 2.0315953545921275 -11.402895046875425 0 -15 -18
833 493 2 0.4238 -6.79804721615968 0.8395585296030479 -7.146312082963679 -31 -36 -21
392 302 2 0.4238 -7.771132550681213 -0.0036642297116262768 -10.657515898027171 -38 -30 -12
1054 243 1 -0.8476 -10.530354768413185 -3.5556584943161234 -10.59870407176311 -42 -1 9
428 60 1 -0.8476 -5.499176295828055 -1.1111409952818345 -5.400455868819583 -43 -44 7
1369 136 2 0.4238 -8.765334065157857 -2.46331624595725 2.102643479988952 -62 -31 -1
1367 136 2 0.4238 -7.271305155586755 -1.9343010995820489 2.495981119606496 -62 -31 -1
753 463 2 0.4238 -8.277903770111141 1.4107752199695653 3.8118220844552493 -45 -28 9
1368 136 1 -0.8476 -8.228955444158608 -1.9632046297222665 2.782504991040172 -62 -31 -1
1506 169 2 0.4238 -8.836926508346426 -3.438755001853588 0.1372932510437117 -40 -51 18
709 496 1 -0.8476 -11.382201082431743 3.906478978498276 2.8342151340650155 -42 -25 0
707 496 2 0.4238 -10.408899698147351 4.063363120148841 3.0018385498528435 -42 -25 0
1264 481 2 0.4238 -8.705469613175058 1.990088847548936 0.9786005666346167 -27 -50 -12
1505 169 1 -0.8476 -9.250779585315975 -3.6973202357303503 1.0101595458635533 -40 -51 18
413 403 2 0.4238 -12.323102569063584 -1.4065459823133821 -1.554052786108878 -54 -28 4
714 59 1 -0.8476 -7.455748630271621 -2.4845478163628005 -3.908322619350926 -21 -22 -13
1358 106 2 0.4238 -12.086891625920881 -3.2904326606974923 1.8266535802680899 -39 -38 -24
1123 304 1 -0.8476 -11.73528797674374 1.2652975433481792 3.8606878103334576 -53 -43 26
751 122 2 0.4238 -12.122818080908454 -1.0187250883310064 1.9584973077259669 -22 -42 7
393 480 2 0.4238 -5.101315766289667 -1.7468074832730434 -1.1666096271484818 -84 -20 -9
823 143 2 0.4238 -6.485351223612479 3.24304120225543 0.5877892832431684 -33 -23 11
147 112 1 -0.8476 -5.524242447641082 -2.3241997430354324 2.1119032063534817 -41 -30 -7
796 122 1 -0.8476 -12.43601013514068 -1.5453179402159591 2.7488367422223714 -22 -42 7
522 66 2 0.4238 -5.571632256255322 -0.42898491850734466 2.2577496593853805 -39 -24 34
1237 376 2 0.4238 -6.015900264819314 -3.4108756660049444 -3.112846438860865 -17 -32 30
153 480 2 0.4238 -5.96861943379066 -3.1100284952087165 -0.9297467741077377 -84 -20 -9
156 480 1 -0.8476 -5.806306946946052 -2.1786053650905775 -0.6039712547001805 -84 -20 -9
561 66 2 0.4238 -5.303995368058037 0.9138311002988715 3.1476428212236716 -39 -24 34
146 112 2 0.4238 -4.931163031963687 -3.027745234187657 2.5034467187152156 -41 -30 -7
520 66 1 -0.8476 -5.1788447635665005 0.49062731846068175 2.250279337623761 -39 -24 34
741 394 2 0.4238 -9.92668132917698 0.4152312366616311 1.8644755981375436 -69 -23 13
1478 481 2 0.4238 -8.231588538325056 2.2505043436962744 -0.5622805404603959 -27 -50 -12
107 112 2 0.4238 -5.685561792321448 -2.5242591567125423 1.145477945125224 -41 -30 -7
217 305 2 0.4238 -4.165686864350922 2.6338890913878323 -0.30045690264070224 -30 -21 0
818 143 2 0.4238 -5.555808422944238 2.1071567861069234 1.303618759498729 -33 -23 11
822 143 1 -0.8476 -5.547085162142457 2.930505810538179 0.736127726493871 -33 -23 11
872 179 2 0.4238 -12.164510169208281 0.7830922565802201 0.6575919632077003 -32 -29 40
1373 304 2 0.4238 -11.250508350812929 1.932338959245083 3.294940875379263 -53 -43 26
1479 481 1 -0.8476 -8.492481515193678 2.690265197133918 0.29712080962218756 -27 -50 -12
826 48 2 0.4238 -10.365273989738764 -3.9969978008073124 3.3626866587378945 -44 -29 21
1217 25 2 0.4238 -9.918727449251437 -1.6765654330452353 -1.3339521001385783 -42 -19 -7
1491 166 1 -0.8476 -7.301092721669538 0.9779064830223501 -1.8596793871743422 -48 -8 45
273 207 2 0.4238 -11.907202089444139 3.632166024663233 -3.6493304466838055 -54 -10 -1
1180 25 2 0.4238 -10.625194676494285 -0.42572774417774717 -2.110485349802188 -42 -19 -7
473 23 2 0.4238 -8.842423339012427 3.5831283008545807 -3.8051335935980752 -33 -65 24
609 179 1 -0.8476 -11.469756583194679 0.1208696589255549 0.9383123924179309 -32 -29 40
665 267 2 0.4238 -4.507522046427923 1.8521620435154684 -3.5044399626329614 -39 -40 11
914 179 2 0.4238 -11.261480935750887 -0.4883304886849391 0.17311835934059872 -32 -29 40
740 394 1 -0.8476 -8.954671922875336 0.5541561106029889 2.0540103638837053 -69 -23 13
488 394 2 0.4238 -8.547765737234478 -0.3074690545535592 2.3574163777983266 -69 -23 13
1432 482 2 0.4238 -8.198164236063622 1.2106715673858677 -3.3758395035753246 -48 -36 -1
868 357 1 -0.8476 -8.772952239587106 -2.8870563388839585 -1.4485643761853524 -38 -44 11
1492 166 2 0.4238 -6.448414856897597 1.4306744028175586 -2.1203851849679882 -48 -8 45
664 267 2 0.4238 -5.497262783223828 0.7116709995342294 -4.126041312907164 -39 -40 11
867 357 2 0.4238 -8.088796514207889 -2.52537827057243 -2.081925107802574 -38 -44 11
1489 166 2 0.4238 -7.09458242837403 0.09203793561132656 -1.4442084151310866 -48 -8 45
1218 25 1 -0.8476 -10.723336558783519 -1.0834824755758845 -1.3636570005931308 -42 -19 -7
663 267 1 -0.8476 -4.9619099536778775 0.9795997087317296 -3.3250186568598608 -39 -40 11
866 357 2 0.4238 -9.22965764683833 -3.6733869984559746 -1.8646534102198071 -38 -44 11
638 89 2 0.4238 -6.11464352904309 -2.945548327230247 5.179964887163331 -27 -33 8
1038 165 1 -0.8476 -6.980670550416766 -3.2461881518066864 10.977918234732252 -61 -41 8
597 28 2 0.4238 -4.702083025024917 -4.127522224403073 11.360963414189518 -35 -63 -4
959 307 2 0.4238 -10.294587321910972 4.066560231525189 11.349512779965126 -31 -14 10
1372 292 2 0.4238 -8.809869738840987 1.7232398370955835 8.361885950957346 -36 -23 -17
74 191 1 -0.8476 -5.1544615490538925 -1.3702972656016676 11.194039650813215 -54 -55 6
537 62 2 0.4238 -12.411989187187634 -1.8372402541009993 11.34421272329571 -58 -31 8
957 307 1 -0.8476 -9.600355098649668 3.4074254256738925 11.06036263085502 -31 -14 10
260 461 2 0.4238 -7.778970930717731 -2.110235113755852 7.906244914985054 -36 -43 -16
257 461 2 0.4238 -7.83159558391872 -3.741102851132835 7.841472048605075 -36 -43 -16
1071 165 2 0.4238 -6.735107667238844 -3.981182917137863 10.345852321880015 -61 -41 8
220 249 1 -0.8476 -9.459012495526718 -3.9766633665728133 11.63048449395711 -37 -42 -13
293 196 1 -0.8476 -8.952606063516086 -0.0035327083744256527 10.749303298348165 -60 -12 -3
221 249 2 0.4238 -9.97850749032114 -3.450892257502238 10.95690076117768 -37 -42 -13
1370 292 2 0.4238 -8.537765983515524 2.557849427405637 9.73886856287267 -36 -23 -17
76 191 2 0.4238 -5.859947198217411 -2.0745305895169643 11.114217559023766 -54 -55 6
710 132 2 0.4238 -12.177955678991585 -2.997272334777799 7.212137216243031 -45 -41 21
256 196 2 0.4238 -8.119301701462454 -0.51521852600548 10.540001606854554 -60 -12 -3
292 196 2 0.4238 -8.958831045363553 0.24114047214402135 11.718902149734143 -60 -12 -3
75 191 2 0.4238 -5.392555384802962 -0.7424648799937614 11.935095545973342 -54 -55 6
909 307 2 0.4238 -9.114379065478161 3.061492858342973 11.86297313532747 -31 -14 10
639 89 1 -0.8476 -6.479843775821888 -3.8253307734669804 4.87560107787815 -27 -33 8
258 461 1 -0.8476 -8.223321247584996 -2.896405551107538 7.476693895671941 -36 -43 -16
1343 281 2 0.4238 -10.470654699424529 -0.18568301736320159 6.7785938089750974 -56 -46 4
1040 165 2 0.4238 -7.97514469007763 -3.209703306705695 11.076483265871198 -61 -41 8
289 435 2 0.4238 -10.739448020687982 -1.6814346082075993 9.459528338963976 -49 -46 5
389 213 2 0.4238 -10.750444414235048 -0.10779961300902485 4.917849685988854 -25 -51 24
825 48 1 -0.8476 -9.835894160647486 -4.081812225595856 4.206836409596599 -44 -29 21
502 446 2 0.4238 -6.3295057773205645 2.0700803519025435 4.798983768515976 -23 -44 21
1509 139 1 -0.8476 -6.416812488446359 -1.0759329550601198 5.66274004136203 -23 -35 -12
657 213 1 -0.8476 -10.54676444293842 -1.0236519249741338 5.263905699227442 -25 -51 24
1342 281 1 -0.8476 -10.154753312220725 0.14808483155162833 7.666755334682103 -56 -46 4
3 85 2 0.4238 -5.948601325369547 -0.5025831401650649 8.779554100539096 -38 -50 9
376 163 2 0.4238 -10.26172827766127 0.5528815331038412 10.349456882017806 -59 -23 8
1172 251 2 0.4238 -6.873345687731523 3.793030591977965 9.574331274180873 -25 -45 -10
1130 251 1 -0.8476 -6.419045907783799 3.9473038731046994 10.451734889257748 -25 -45 -10
1128 251 2 0.4238 -5.841475647286336 3.160902682179165 10.670850089875652 -25 -45 -10
283 287 2 0.4238 -11.494851629944794 2.411152812101843 9.28742015842793 -49 -37 17
801 463 1 -0.8476 -8.0543427764715 2.0934584734957262 4.507515353260624 -45 -28 9
804 463 2 0.4238 -8.616133778037636 2.9087535244442257 4.367120200082374 -45 -28 9
284 287 1 -0.8476 -11.839651262044894 3.044969414794581 8.59502217129882 -49 -37 17
378 163 2 0.4238 -11.66160149802479 1.000154985748333 11.0614934703512 -59 -23 8
757 446 1 -0.8476 -5.356991884508101 1.8514329878646176 4.718757963845517 -23 -44 21
20 0 3 1 -8.54177018882663 -2.2928452997604563 5.0819299687427755 -10 -16 -17
242 85 2 0.4238 -7.462435690308481 0.08995507925214064 8.62496142065345 -38 -50 9
1510 139 2 0.4238 -5.652172840216363 -0.517880702026007 5.340358918879682 -23 -35 -12
1421 464 2 0.4238 -7.223840694694048 2.998268770133901 7.9136333461483 -52 -60 2
1420 464 1 -0.8476 -6.565902668672509 3.3572335259072847 7.251601050626936 -52 -60 2
119 4 2 0.4238 -10.398085676520104 3.0194471727601275 7.388513421435386 -49 -41 13
338 318 2 0.4238 -4.40363862491734 1.093773507059959 6.0186374094731665 -62 -40 -10
656 213 2 0.4238 -11.22230681799102 -1.671128102526671 4.911141011263327 -25 -51 24
1508 139 2 0.4238 -6.582271918760825 -0.8872997803915865 6.630762095760657 -23 -35 -12
248 435 2 0.4238 -11.816534214026143 -2.9087476994157253 9.44279729367308 -49 -46 5
241 85 1 -0.8476 -6.8639879355489555 -0.6846904671021683 8.420485878348442 -38 -50 9
1340 281 2 0.4238 -10.937327039273253 0.2556603798912054 8.279969167584577 -56 -46 4