LAMMPS data file via write_data, version 28 Oct 2021, timestep = 5000

1518 atoms
11 atom types
1000 bonds
1 bond types
500 angles
1 angle types

-12.446036182385045 12.446036182385045 xlo xhi
-12.446036182385045 12.446036182385045 ylo yhi
-12.446036182385045 12.446036182385045 zlo zhi

Masses

1 15.9994
2 1.00794
3 22.989769
4 35.453
5 60
6 60
7 60
8 15.9994
9 1.00794
10 22.989769
11 35.453

PairIJ Coeffs # lj/cut/coul/long

1 1 0.155354 3.169 9
1 2 0 0 9
1 3 0.234061 2.66425 9
1 4 0.044567 3.99975 9
1 5 0 0 9
1 6 0 0 9
1 7 0 0 9
1 8 0 0 9
1 9 0 0 9
1 10 0 0 9
1 11 0 0 9
2 2 0 0 9
2 3 0 1.07975 9
2 4 0 2.41525 9
2 5 0 0 9
2 6 0 0 9
2 7 0 0 9
2 8 0 0 9
2 9 0 0 9
2 10 0 0 9
2 11 0 0 9
3 3 0.352644 2.1595 9
3 4 0.067146 3.495 9
3 5 0 0 9
3 6 0 0 9
3 7 0 0 9
3 8 0 0 9
3 9 0 0 9
3 10 0 0 9
3 11 0 0 9
4 4 0.0127851 4.8305 9
4 5 0 0 9
4 6 0 0 9
4 7 0 0 9
4 8 0 0 9
4 9 0 0 9
4 10 0 0 9
4 11 0 0 9
5 5 0 0 9
5 6 0 0 9
5 7 0 0 9
5 8 0 0 9
5 9 0 0 9
5 10 0 0 9
5 11 0 0 9
6 6 0 0 9
6 7 0 0 9
6 8 0 0 9
6 9 0 0 9
6 10 0 0 9
6 11 0 0 9
7 7 0 0 9
7 8 0 0 9
7 9 0 0 9
7 10 0 0 9
7 11 0 0 9
8 8 0 0 9
8 9 0 0 9
8 10 0 0 9
8 11 0 0 9
9 9 0 0 9
9 10 0 0 9
9 11 0 0 9
10 10 0 0 9
10 11 0 0 9
11 11 0 0 9

Bond Coeffs # harmonic

1 100000 1

Angle Coeffs # harmonic

1 100000 109.47

Atoms # full

227 254 1 -0.8476 -10.447391669191003 -10.39698396001549 -11.941439290598256 -45 -12 12
610 468 2 0.4238 -8.34907228987685 -11.701685359245324 -7.538925354968278 -42 -41 3
228 254 2 0.4238 -10.875598950228767 -10.167060741519457 -11.067468917558308 -45 -12 12
912 280 2 0.4238 -12.26009131723987 -8.038343121686351 -12.067717132868077 -35 -44 -4
873 68 2 0.4238 -11.41028318763797 -12.017699074323689 -9.197051924236769 -59 -21 0
122 194 1 -0.8476 -7.182524252986355 -10.235245631669883 -11.76273324481492 -86 -50 2
972 208 2 0.4238 -7.162089679616284 -7.363917828435574 -7.491917263180736 -42 -17 -31
221 249 2 0.4238 -6.179062254229029 -7.285654023985196 -12.10516443694306 -37 -42 -12
476 254 2 0.4238 -9.563545356617956 -10.834126128672247 -11.774787612092709 -45 -12 12
851 449 1 -0.8476 -5.843125877097051 -4.975565058682085 -9.800561969282784 -45 -43 -3
324 69 2 0.4238 -11.56617565512625 -6.339770537059652 -7.159510356551122 -15 -24 8
973 208 1 -0.8476 -6.339636641698024 -7.049535618235759 -7.9660339989356945 -42 -17 -31
1292 168 2 0.4238 -8.171839950185925 -8.172864859058848 -9.963725520217778 -45 -45 -8
328 69 2 0.4238 -11.476405253614674 -4.99679495248018 -8.08423658898999 -15 -24 8
849 449 2 0.4238 -6.173100638256754 -5.236537194297921 -8.893335169837258 -45 -43 -3
348 206 1 -0.8476 -4.580457600103733 -10.441137036711028 -11.992184003132493 -57 -20 -20
1293 168 1 -0.8476 -8.688308025810962 -9.029163858301505 -9.955785785255635 -45 -45 -8
850 449 2 0.4238 -6.0364752606574505 -5.7111176840483795 -10.449891394349882 -45 -43 -3
123 194 2 0.4238 -7.734319433941532 -9.665719876211671 -11.153460593848738 -86 -50 2
1289 168 2 0.4238 -9.66468556812112 -8.830326636384505 -10.040647907843725 -45 -45 -8
18 249 2 0.4238 -7.621611949079683 -6.582121176594293 -11.80374725270871 -37 -42 -12
220 249 1 -0.8476 -6.764476476348044 -6.895161221172976 -11.394632343344835 -37 -42 -12
114 206 2 0.4238 -5.566238226014539 -10.49620252388076 -11.833266040547564 -57 -20 -20
326 69 1 -0.8476 -11.89255676866552 -5.901949668371317 -7.997268448090272 -15 -24 8
430 360 1 -0.8476 -12.021158834444503 -5.731739603288079 -10.706092056402335 -21 -32 11
1284 187 2 0.4238 -7.762896808357319 -10.203105656802304 -5.403768879854169 -65 -22 -9
974 208 2 0.4238 -5.557415019042635 -7.602394175754513 -7.678758771822347 -42 -17 -31
711 30 2 0.4238 -4.35064617459687 -10.2655437853429 -7.299786231809271 -62 -16 -16
671 241 2 0.4238 -11.74072064158407 -7.749205205866323 -9.773104414541612 -67 -35 23
611 468 2 0.4238 -7.1978139840224555 -12.020120335929768 -6.425388313565289 -42 -41 3
762 326 2 0.4238 -9.442391723275243 -7.2746103908060205 -6.658556799395125 -22 -2 6
429 360 2 0.4238 -12.034458287592084 -5.699658262343199 -9.706670051038538 -21 -32 11
760 326 1 -0.8476 -8.448936952663477 -7.360082413290526 -6.582446018786299 -22 -2 6
806 452 2 0.4238 -12.168164083995245 -6.387328301478334 -5.458922201710123 -74 -14 -22
893 439 1 -0.8476 -11.129556448483951 -7.820348468403762 -6.244525396355008 -38 -14 11
1112 1 2 0.4238 -5.518092940014364 -6.692484735794903 -5.079450152258412 -50 -35 16
891 439 2 0.4238 -11.411808845661858 -8.650622733325442 -6.725179739757417 -38 -14 11
1364 1 1 -0.8476 -5.9106442905328755 -5.774545215390204 -5.021650715187672 -50 -35 16
895 439 2 0.4238 -11.007107122217533 -8.022972779107118 -5.272928845157419 -38 -14 11
222 269 2 0.4238 -4.552935473096434 -4.914276364324982 -5.036245062555463 -47 -30 9
1110 1 2 0.4238 -6.552458751885989 -5.638363754994935 -5.7763553298357575 -50 -35 16
758 326 2 0.4238 -8.195095748266922 -7.452091923779362 -5.619560127182301 -22 -2 6
1012 348 2 0.4238 -9.609644150519992 -11.282846180314637 -5.638232229525769 -62 -18 17
1213 498 2 0.4238 -7.847003709403832 -11.140026285851034 -9.770768918884254 -26 -42 25
1214 498 1 -0.8476 -8.312165936569414 -11.998140858382557 -9.553251157196382 -26 -42 25
670 241 1 -0.8476 -11.362857168360348 -8.674443741736463 -9.738405629630988 -67 -35 23
612 468 1 -0.8476 -7.969628654298352 -11.427258403898087 -6.655317532365941 -42 -41 3
669 241 2 0.4238 -11.920790083863501 -9.239778705259495 -9.130822016242789 -67 -35 23
1383 0 4 -1 -4.617967176344146 -8.451971200972935 -5.696200741673549 -10 -15 -21
1014 348 2 0.4238 -10.796828442894784 -11.339767005331392 -6.758104609263796 -62 -18 17
1053 243 2 0.4238 -8.642495664892346 -4.39346011451285 -11.134293949112433 -42 -1 9
1285 187 1 -0.8476 -7.328794583907241 -9.64400371249435 -4.6973618580072305 -65 -22 -9
1283 187 2 0.4238 -6.480940311755162 -9.253224691676913 -5.055811359020915 -65 -22 -9
1011 348 1 -0.8476 -10.53539132023623 -10.97864026918147 -5.86295728079183 -62 -18 17
1239 382 2 0.4238 -11.472347244818891 -10.733149264647885 -4.4925153145823575 -11 -36 19
835 68 2 0.4238 -9.832485488062002 -12.096766244788032 -8.783452837042159 -59 -21 0
874 68 1 -0.8476 -10.76785155731756 -12.058572719728074 -8.431766833573732 -59 -21 0
792 62 2 0.4238 -10.252302634226048 -5.7145052469627755 -11.416267609740535 -58 -31 9
793 62 1 -0.8476 -9.557996586339955 -5.494983654894497 -12.101687064424945 -58 -31 9
1286 432 2 0.4238 -8.713226571399098 -10.49939054312959 -1.475545368084962 -44 -19 -13
1506 169 2 0.4238 -6.560017857127051 -5.32508764280193 -0.7161047836101915 -40 -51 18
1051 432 2 0.4238 -8.783181566056268 -10.174826736096351 -3.074459559023026 -44 -19 -13
1049 432 1 -0.8476 -9.129920563583621 -9.916136785803577 -2.172848764127389 -44 -19 -13
195 174 2 0.4238 -6.990353188432195 -8.629012554564238 -0.763971779724649 -78 -35 -4
1386 351 2 0.4238 -4.950279556077499 -9.75574912287503 -3.7125033902679885 -56 -23 -13
1350 351 1 -0.8476 -4.646600038846241 -10.405009292505135 -3.015158103666968 -56 -23 -13
35 11 2 0.4238 -7.346309881639698 -11.385042443179305 0.6625527892185428 -23 -26 1
1064 256 2 0.4238 -9.916246064113096 -8.869763125304639 -3.4020408856450217 -37 -28 9
1137 217 1 -0.8476 -6.573071777029203 -5.872396073588584 -2.364450654304715 -57 -26 9
197 174 2 0.4238 -5.977416028211573 -9.408700318610023 -1.7802425922580358 -78 -35 -4
36 11 1 -0.8476 -8.32280809518424 -11.382889711142186 0.4469208436909824 -23 -26 1
814 407 2 0.4238 -5.33545346609229 -12.116599780537106 -3.2211877201118178 -35 -39 5
196 174 1 -0.8476 -6.121009960718755 -8.570102937516506 -1.254708400917469 -78 -35 -4
485 11 2 0.4238 -8.635053751713796 -12.322367627844384 0.30573183338463394 -23 -26 1
451 474 2 0.4238 -4.222123101775802 -7.048523814130805 3.0213290944070383 -36 -32 11
866 357 2 0.4238 -8.127653579560079 -4.4847319971258175 -2.223338692378954 -38 -44 11
1356 84 2 0.4238 -11.439798357549872 -5.636885090904785 -3.4660692949550516 -43 -27 -9
1233 500 1 -0.8476 -4.327842369739434 -5.6505136515614405 1.972183212154098 -60 -27 6
1384 217 2 0.4238 -6.3534779407414845 -6.812343595554592 -2.103054989468106 -57 -26 9
1460 169 2 0.4238 -7.44366626949434 -4.731470134841476 0.5222587745000382 -40 -51 18
1135 217 2 0.4238 -6.258256693815012 -5.703997719800433 -3.2985727939666187 -57 -26 9
1067 256 2 0.4238 -10.597892693432408 -7.393725038126972 -3.2489726708715665 -37 -28 9
1063 256 1 -0.8476 -10.68199154757141 -8.290954385942085 -3.682513102459687 -37 -28 9
1395 84 2 0.4238 -10.360676376266177 -4.99254963782134 -2.423434003035254 -43 -27 -9
1353 84 1 -0.8476 -10.917596167807417 -5.797442205176723 -2.628467495192293 -43 -27 -9
1240 382 2 0.4238 -11.88136104102559 -10.46979915493336 -2.933632578929192 -11 -36 19
732 173 2 0.4238 -10.59551893042733 -6.527788691348977 -0.915115933095171 -34 -23 -19
1134 159 2 0.4238 -9.710464761412474 -5.334942315719023 1.1455707650032068 -22 -34 31
1232 500 2 0.4238 -5.0170637647952585 -5.280292260659545 1.3493184784878842 -60 -27 6
511 261 2 0.4238 -11.710023008785567 -7.370013469822521 1.0742342895062773 -25 -46 24
418 341 1 -0.8476 -5.647441569289726 -10.414956716257912 2.931537276717922 -14 -28 35
734 173 1 -0.8476 -10.351489876593536 -6.7728217407256945 0.02321178402424451 -34 -23 -19
876 159 1 -0.8476 -9.188499639750702 -4.487037155833744 1.2386278726281823 -22 -34 31
21 47 2 0.4238 -4.421134201466845 -7.820659238158287 -1.2356764973735253 -39 -59 14
410 436 2 0.4238 -8.365531369110542 -5.681613276190366 2.619406725098722 -38 -27 15
419 341 2 0.4238 -5.015648020729674 -9.65364973631671 2.7855940813403297 -14 -28 35
190 0 4 -1 -5.355816319294013 -12.378588988663696 0.29800041620580053 -4 -7 -5
717 193 1 -0.8476 -7.881687849826699 -8.949367099621295 3.5960691242711906 -50 -34 0
420 341 2 0.4238 -5.608063678088862 -11.035601949979656 2.14840294725359 -14 -28 35
1238 382 1 -0.8476 -11.994560951816757 -11.083573009445763 -3.7149890395088825 -11 -36 19
1007 173 2 0.4238 -9.458735251488973 -7.223388483721625 0.028612999744693113 -34 -23 -19
1505 169 1 -0.8476 -6.762833358790649 -5.414999543812719 0.2590014942937131 -40 -51 18
367 436 2 0.4238 -7.984097876429785 -7.113007333876312 3.306705895169488 -38 -27 15
411 436 1 -0.8476 -7.989828201445252 -6.12129295567553 3.4352370582116123 -38 -27 15
716 193 2 0.4238 -6.959502850353782 -9.303660650451834 3.751315171147338 -50 -34 0
170 258 2 0.4238 -7.299104674958988 -7.050205460813365 0.7411402636890276 -54 -18 1
172 258 1 -0.8476 -7.938649159915904 -7.814516576103067 0.823976016439282 -54 -18 1
1106 476 1 -0.8476 -10.842362664583135 -10.464945122921527 1.780370839027043 -43 -10 -21
1108 476 2 0.4238 -11.332773958402612 -9.71498875225107 1.3363972833265727 -43 -10 -21
1104 476 2 0.4238 -9.891434995576212 -10.470768657435347 1.4709309741297645 -43 -10 -21
1016 104 2 0.4238 -10.271788332770097 -10.677578349573801 3.6397934923954463 -47 -42 -11
171 258 2 0.4238 -7.778636963196065 -8.290818130975799 1.688605117762462 -54 -18 1
60 230 2 0.4238 -10.899315108493116 -12.212401800159082 2.2867379571435418 -44 -26 11
1326 40 2 0.4238 -9.908075365751422 -6.527581126648555 8.053350701480626 -26 -28 -1
560 121 2 0.4238 -7.709977455424375 -12.05316006018874 8.579827515446807 -62 -38 -6
421 259 1 -0.8476 -10.831556192296285 -11.667609222568506 7.682317448931437 -33 -21 57
200 405 2 0.4238 -10.249654163720718 -5.369967596781778 6.16217113245993 -42 -34 -6
506 485 2 0.4238 -4.601201116953518 -5.411068351901556 10.61828682170041 -41 -18 -12
824 48 2 0.4238 -7.77348424645856 -4.956691508073177 4.992079583653966 -44 -29 21
776 131 1 -0.8476 -11.744233358241887 -9.34432102804082 6.256587132271152 -57 -41 -14
648 344 2 0.4238 -7.9204589823349645 -8.585544249529132 11.000261159260456 -46 -32 6
650 344 2 0.4238 -8.68330102548719 -7.141989842212614 11.031621972656469 -46 -32 6
649 344 1 -0.8476 -7.7913906238926876 -7.594228120079747 11.026424363270012 -46 -32 6
775 131 2 0.4238 -11.857428937221838 -8.415542999950997 6.609587446862351 -57 -41 -14
547 486 2 0.4238 -6.1130518271551795 -11.334564604892783 4.465760525898988 -56 -32 30
544 486 2 0.4238 -5.373044155937871 -12.205505354548821 5.632213174531975 -56 -32 30
673 193 2 0.4238 -8.526246085371895 -9.423365410351392 4.196002965867757 -50 -34 0
537 62 2 0.4238 -9.998373805467391 -5.097710227298246 11.985219420723352 -58 -31 8
198 405 2 0.4238 -9.863989976036914 -6.942493926230777 5.949604547531161 -42 -34 -6
1021 212 2 0.4238 -12.441488003315653 -5.773314926256304 7.002874791485494 -33 -55 -2
199 405 1 -0.8476 -10.617613649170037 -6.293605424424437 6.054703264138302 -42 -34 -6
192 109 2 0.4238 -12.217159418096514 -6.664913777965107 4.811387533517452 -40 -28 -10
668 132 2 0.4238 -10.191781285271679 -4.734659802274505 9.998863112918974 -45 -41 21
1325 40 1 -0.8476 -10.077700962566608 -6.37878111527293 9.027586799500474 -26 -28 -1
546 486 1 -0.8476 -6.257727028119961 -11.92962551973523 5.256344153104257 -56 -32 30
825 48 1 -0.8476 -7.9307699810427374 -4.537755719929006 5.886397441093704 -44 -29 21
826 48 2 0.4238 -7.3905237585776495 -5.0165793080153325 6.578432366506272 -44 -29 21
645 80 2 0.4238 -8.215679239405333 -10.947321718695576 10.336154611211056 -36 -13 17
30 114 1 -0.8476 -7.036789514273907 -10.746369419259652 7.627034750523931 -48 -29 11
32 114 2 0.4238 -6.519492158152183 -10.144453256383265 8.235434864471818 -48 -29 11
1074 204 2 0.4238 -7.064717430311648 -5.93397592323818 10.34675240400224 -22 -12 -2
1490 223 2 0.4238 -4.920642680109323 -9.842379242792827 9.133613268368963 -52 -35 5
31 114 2 0.4238 -6.519511513911741 -10.892312936277806 6.7837232678361 -48 -29 11
799 347 2 0.4238 -4.8649304880101205 -11.01405659994971 11.064142270661685 -42 -36 13
1493 223 1 -0.8476 -4.684530804904668 -9.00397498886132 8.642308352990765 -52 -35 5
1094 347 2 0.4238 -5.0014625990882395 -12.198570006668001 9.948325211928667 -42 -36 13
783 418 2 0.4238 -5.525644200391202 -7.975184190398456 11.181151536941512 -54 -39 5
900 412 1 -0.8476 -5.610208790496252 -5.611697110404019 7.480268772533387 -34 -34 -2
861 412 2 0.4238 -5.785794696396225 -6.405217611725362 6.8975633600253285 -34 -34 -2
902 412 2 0.4238 -4.636027179030559 -5.570245983635412 7.702310251859791 -34 -34 -2
1380 440 1 -0.8476 -11.780443512415017 -8.602657432117859 9.962137621046969 -56 -17 4
1378 440 2 0.4238 -12.249014878219375 -9.216729818445874 9.32699449842987 -56 -17 4
1382 440 2 0.4238 -12.34188475268687 -8.477529073472004 10.780170142986938 -56 -17 4
924 91 1 -0.8476 -11.953848073517658 -12.275947760292414 11.381643630351961 -40 -3 -19
1412 36 2 0.4238 -4.9460872459919605 -7.810974460942308 5.232205281185246 -58 -19 28
77 264 2 0.4238 -9.673854335710127 -12.41143265065209 5.53915266850735 -47 -9 35
314 483 2 0.4238 -7.704382726713978 -7.811879193421962 6.128410970621077 -38 -30 17
1414 36 2 0.4238 -5.2507578194427325 -8.210083658612103 6.7861191194120085 -58 -19 28
1075 204 1 -0.8476 -6.339167658841128 -5.300378277643335 10.078084674694798 -22 -12 -2
1092 347 1 -0.8476 -4.911502288492733 -11.212023808760064 10.085014854525417 -42 -36 13
923 91 2 0.4238 -11.33903638463719 -11.538620153805754 11.66165304266172 -40 -3 -19
1413 36 1 -0.8476 -5.574497342813412 -7.683997055977532 5.999686759556541 -58 -19 28
646 80 1 -0.8476 -8.582907213490001 -10.090684612906381 10.69860076323888 -36 -13 17
317 483 2 0.4238 -8.806225591776382 -9.01041932650613 6.255707528309115 -38 -30 17
315 483 1 -0.8476 -8.652494765558124 -8.02798421038727 6.361718667786695 -38 -30 17
1076 204 2 0.4238 -6.271989338071337 -5.2741576930383465 9.08066291887791 -22 -12 -2
644 80 2 0.4238 -9.571563840114605 -10.17737426655663 10.821456848916823 -36 -13 17
531 104 2 0.4238 -10.610952824870598 -10.103203756154958 5.130371188403421 -47 -42 -11
120 194 2 0.4238 -7.337937035372382 -9.95704870948371 12.1814447846056 -86 -50 1
423 259 2 0.4238 -10.769620270775398 -10.86572449637082 7.088015153655222 -33 -21 57
422 259 2 0.4238 -9.964257588727573 -11.793262180834416 8.164038127822918 -33 -21 57
786 104 1 -0.8476 -9.94470190462427 -10.608972099801967 4.582321144078344 -47 -42 -11
1366 40 2 0.4238 -10.783842796601608 -7.012474876186897 9.343571591872424 -26 -28 -1
782 418 1 -0.8476 -4.683192437739638 -8.014895286960066 11.718504849648165 -54 -39 5
349 206 2 0.4238 -4.376969280120143 -9.635207991863359 12.343901476251457 -57 -20 -21
1511 90 2 0.4238 -12.362635339839203 -3.05100665424248 -6.473735928899038 -64 -56 14
73 79 2 0.4238 -9.110378919203681 2.6350365745181232 -5.8242637645462505 -52 -36 0
1114 0 4 -1 -9.302166898584135 1.3356245428080875 -9.635794973249531 0 -15 -18
959 307 2 0.4238 -10.695828427848689 3.6720656225050785 -12.123788325144005 -31 -14 11
72 79 1 -0.8476 -9.839265298126673 3.290241413204324 -6.0229641346924945 -52 -36 0
391 302 1 -0.8476 -6.614788947053415 4.039384721981881 -6.488384700406055 -38 -30 -12
70 79 2 0.4238 -9.852635989983872 3.4867788025812203 -7.003395147121354 -52 -36 0
378 163 2 0.4238 -11.379145847964267 0.29246413017184913 -12.149095491691968 -59 -23 9
376 163 2 0.4238 -9.939553093783795 0.238537586040815 -11.380053113509915 -59 -23 9
293 196 1 -0.8476 -6.8874503807332825 0.5552095636051266 -11.728262319579542 -60 -12 -2
335 117 1 -0.8476 -9.16917533683604 -1.8988233795134235 -9.09787394232273 -53 -37 -1
931 450 2 0.4238 -10.489517890688482 -2.7285163837900193 -8.14728735882463 -82 -52 -1
832 493 2 0.4238 -4.803124296750415 1.7642973932376549 -4.753803595049317 -31 -36 -21
932 450 1 -0.8476 -11.471091954013039 -2.8708717821840946 -8.019623269741277 -82 -52 -1
881 175 1 -0.8476 -8.002046107962816 -3.287303557800886 -6.987719785002834 -40 -8 7
1139 175 2 0.4238 -7.026050516341148 -3.080473229256418 -6.9191332759550725 -40 -8 7
660 330 2 0.4238 -4.3782625089308596 -3.9602024118807524 -10.173005556248636 -47 -17 0
957 307 1 -0.8476 -10.124431250422237 2.9152566814902183 -12.441272668861659 -31 -14 11
448 465 2 0.4238 -8.71510623320356 3.5816714103939713 -9.04168481134608 -33 -36 23
909 307 2 0.4238 -9.565864874320326 2.5785253472193244 -11.683205261656484 -31 -14 11
662 330 2 0.4238 -4.605396121513242 -3.1106092104847534 -11.549000558694212 -47 -17 0
76 191 2 0.4238 -5.0379480960677405 0.14097990722969733 -11.452742628418635 -54 -55 7
361 224 2 0.4238 -5.062521566724312 0.4399362219572929 -7.868274366004135 -36 -30 38
884 450 2 0.4238 -11.977278026766122 -2.308640394086801 -8.673628430235954 -82 -52 -1
371 117 2 0.4238 -9.135927091394418 -0.9481863367221397 -9.406474546955168 -53 -37 -1
336 117 2 0.4238 -8.64818832292099 -2.4727860768957655 -9.729688894430645 -53 -37 -1
377 163 1 -0.8476 -10.537969254339414 -0.23434323683736302 -12.026839597414131 -59 -23 9
845 175 2 0.4238 -8.352181130932086 -2.9561251333228533 -7.863948407272926 -40 -8 7
965 244 1 -0.8476 -4.879673776416836 -2.9748779716861495 -7.443178870047809 -65 -35 1
1052 243 2 0.4238 -7.1761042717029895 -3.918055523965915 -10.595362222020384 -42 -1 9
29 323 2 0.4238 -8.220801900477412 0.13786059072664258 -7.512616615060223 -43 -25 -2
1425 129 1 -0.8476 -10.31548415880699 0.5172678343669102 -4.399181335917774 -38 -37 -12
1054 243 1 -0.8476 -8.110433764210697 -3.619687144940995 -10.790439293199709 -42 -1 9
967 244 2 0.4238 -4.507153988621063 -3.0990021248120723 -6.523465477849307 -65 -35 1
1423 129 2 0.4238 -11.06770242044576 0.2814626948701697 -5.014497406640723 -38 -37 -12
8 216 2 0.4238 -7.238220213593593 1.0880731993445742 -5.576169516341326 -43 -22 4
294 339 2 0.4238 -11.513981198060097 3.0456377533978145 -5.4442960686607 -75 -28 31
292 196 2 0.4238 -7.496235759571223 0.782503673896338 -10.968151447092339 -60 -12 -2
268 323 1 -0.8476 -8.384944945934322 0.23092525554207732 -6.530554286806943 -43 -25 -2
1015 231 2 0.4238 -5.4874932253677935 2.51314420508181 -8.570045123333529 -33 -12 10
937 59 2 0.4238 -8.087326103686644 -1.3090156495057528 -4.346511114014167 -21 -22 -13
1013 231 1 -0.8476 -5.938274625613405 1.62740163686402 -8.680979786415376 -33 -12 10
968 244 2 0.4238 -4.855721532612443 -2.004669846789234 -7.684369731860349 -65 -35 1
712 59 2 0.4238 -8.673155106902264 -2.3398224576578546 -5.469454877772012 -21 -22 -13
5 216 1 -0.8476 -6.878835765449767 1.7024923271366799 -4.873757493965428 -43 -22 4
4 216 2 0.4238 -6.618774192852933 2.572298348831744 -5.293109329192346 -43 -22 4
837 192 2 0.4238 -11.588473498483815 1.0277887539116897 -8.765593116114788 -34 -37 -17
714 59 1 -0.8476 -8.834308385249948 -1.9355291605256983 -4.569106325278634 -21 -22 -13
362 224 1 -0.8476 -4.51157065721303 -0.26717364451699055 -7.4249919539652955 -36 -30 38
265 323 2 0.4238 -9.368015297733553 0.1907615549547721 -6.351641437760451 -43 -25 -2
1010 231 2 0.4238 -6.930097792683216 1.7526484808813372 -8.655478697305993 -33 -12 10
1130 251 1 -0.8476 -6.622840037977927 3.796133689457081 -11.719630782249999 -25 -45 -9
1128 251 2 0.4238 -6.693237702410618 2.8323928447710074 -11.462146708434378 -25 -45 -9
427 60 2 0.4238 -5.278914018676644 -1.754626259508564 -3.33495807740241 -43 -44 7
413 403 2 0.4238 -12.002844433784649 -0.9825024348331528 -1.623976784291541 -54 -28 4
1426 129 2 0.4238 -9.994609052907949 -0.30756574269382675 -3.933628979687782 -38 -37 -12
533 207 1 -0.8476 -8.945739766705262 2.566556059304448 -2.8719369501539234 -54 -10 -1
872 179 2 0.4238 -9.350389536750663 0.9612095035179866 -0.5530175221976386 -32 -29 40
1491 166 1 -0.8476 -6.380727238782457 0.06070169136053494 -0.618430660648535 -48 -8 45
1489 166 2 0.4238 -7.329603754766898 -0.02070672857797362 -0.313378462164307 -48 -8 45
1369 136 2 0.4238 -9.917165574958183 -2.694009924417074 3.230645305002808 -62 -31 -1
1433 482 1 -0.8476 -6.795391320485312 -0.46221767015821236 -3.3939162520755453 -48 -36 -1
914 179 2 0.4238 -9.52042300000904 -0.653067538379906 -0.37424476882145363 -32 -29 40
1180 25 2 0.4238 -9.920126729912962 -2.6795737776565147 -1.4605033859041168 -42 -19 -7
636 70 2 0.4238 -9.165627333810399 3.813699146903895 0.2026498981447098 -50 -19 2
153 480 2 0.4238 -4.861522023595309 -1.9504605091456746 1.573963583806897 -84 -20 -9
156 480 1 -0.8476 -4.540892184280741 -1.0585474898675322 1.2549994864317462 -84 -20 -9
428 60 1 -0.8476 -4.512856500817135 -2.363199415472808 -3.1279670506444486 -43 -44 7
273 207 2 0.4238 -8.059998818909497 2.3792342444996084 -3.2967004077340754 -54 -10 -1
1319 306 1 -0.8476 -12.222933550653845 1.9964126803368263 -1.2049976711128547 -56 -18 4
868 357 1 -0.8476 -8.810630004750235 -3.771318252518082 -2.3802921227099514 -38 -44 11
1478 481 2 0.4238 -6.006872616792765 1.7333835762480962 -0.732616064844116 -27 -50 -12
637 70 1 -0.8476 -9.643696172501292 3.1393830926293056 -0.3601987280250363 -50 -19 2
867 357 2 0.4238 -8.6296945913647 -3.323519241935399 -3.2559568549701385 -38 -44 11
640 70 2 0.4238 -9.22261955869951 3.103035116664783 -1.2665232902826347 -50 -19 2
741 394 2 0.4238 -9.509367767451069 0.6454032041307176 1.6831286140885648 -69 -23 13
740 394 1 -0.8476 -9.860342610730159 0.6341714768617148 2.619472988601185 -69 -23 13
1432 482 2 0.4238 -6.636698991904373 -0.2556127598525588 -2.428420539082337 -48 -36 -1
1218 25 1 -0.8476 -10.550207215290794 -2.029242840340677 -1.0360993806036287 -42 -19 -7
1320 306 2 0.4238 -11.422371959448181 2.4931604848522717 -0.8697466678430157 -56 -18 4
488 394 2 0.4238 -10.462355373121605 1.420362552239503 2.7592387792120476 -69 -23 13
573 207 2 0.4238 -9.626150726075585 1.9227636897347793 -3.2221127546673944 -54 -10 -1
1368 136 1 -0.8476 -9.611306764600371 -2.1017511026079045 3.9761185416951594 -62 -31 -1
1367 136 2 0.4238 -9.607625280629922 -1.15092326618017 3.66633908801702 -62 -31 -1
609 179 1 -0.8476 -9.027695477078321 0.1564002091052128 -0.05481974802783718 -32 -29 40
165 482 2 0.4238 -6.7501818003935306 0.38245233149023683 -3.9273385273174135 -48 -36 -1
1492 166 2 0.4238 -5.794754954401987 -0.506697370683165 -0.039858719738662174 -48 -8 45
1264 481 2 0.4238 -6.1626667427773745 2.9834156493739137 0.3065704145208663 -27 -50 -12
1479 481 1 -0.8476 -5.755497088728097 2.685188244866719 -0.5567509098619556 -27 -50 -12
990 488 2 0.4238 -10.599365714298779 3.158322486327169 1.0224741733056515 -33 -35 -22
794 229 2 0.4238 -6.56192877695639 -3.694854444005946 3.0223582481626483 -52 -39 -7
1373 304 2 0.4238 -11.323486643896608 3.4091045518472622 3.4430940874943055 -53 -43 26
790 229 2 0.4238 -4.952456571840585 -3.7567802173729596 2.7530527768007484 -52 -39 -7
1358 106 2 0.4238 -11.512792057808548 -1.724862271502845 2.1071057479620183 -39 -38 -24
791 229 1 -0.8476 -5.743963069312253 -3.1510431263064103 2.834604101958229 -52 -39 -7
1100 106 2 0.4238 -11.984925811807699 -3.2881304881156765 2.113643308939942 -39 -38 -24
1359 106 1 -0.8476 -11.264331329935944 -2.6539911638433367 1.8331761775679354 -39 -38 -24
992 488 1 -0.8476 -11.25189122090772 3.4179117872101816 1.7344258874544192 -33 -35 -22
146 112 2 0.4238 -5.033610243230435 0.2609207831567044 2.8916976771281018 -41 -30 -7
1217 25 2 0.4238 -11.087019736254826 -2.4956326727457725 -0.3329896644236925 -42 -19 -7
219 305 2 0.4238 -5.059543319026301 3.7260889354066524 2.4821157983187874 -30 -21 0
877 159 2 0.4238 -9.818104155324463 -3.7115348417010843 1.2860075842767067 -22 -34 31
822 143 1 -0.8476 -6.654203572816282 2.9941265141638382 1.9411993962703544 -33 -23 11
818 143 2 0.4238 -6.965170103431439 2.46510101143852 2.7308082634893527 -33 -23 11
823 143 2 0.4238 -7.346361803737684 3.6754489956161525 1.7029407973164954 -33 -23 11
147 112 1 -0.8476 -5.1209953166198074 0.31773234115359017 3.886276309940987 -41 -30 -7
107 112 2 0.4238 -5.774566645395821 1.0366824638823662 4.122932020705468 -41 -30 -7
710 132 2 0.4238 -11.237057925430134 -3.9209348175283267 10.953854866888436 -45 -41 21
667 132 1 -0.8476 -10.287470657422208 -3.977834490969716 10.645477105076237 -45 -41 21
1342 281 1 -0.8476 -10.646942720153458 -0.07749271602395424 9.248492723846963 -56 -46 4
1510 139 2 0.4238 -9.319284811732665 0.5727678737402666 6.447795870851367 -23 -35 -12
20 0 3 1 -8.61331460145391 -2.1953718896445817 6.001378064365712 -10 -16 -17
1343 281 2 0.4238 -11.588918788107648 0.22777279419997498 9.108689065922087 -56 -46 4
1172 251 2 0.4238 -6.486421229565724 3.8680575768969394 12.184379161511854 -25 -45 -10
1120 304 2 0.4238 -12.071456815956731 3.895711808249791 4.810761699257684 -53 -43 26
1123 304 1 -0.8476 -11.493784222464903 3.1882904480219043 4.403453630824631 -53 -43 26
638 89 2 0.4238 -6.0254243780599355 -2.4948499515087317 4.771530776337444 -27 -33 8
241 85 1 -0.8476 -5.3545007515789464 3.720552195754218 10.66236718780071 -38 -50 9
635 89 2 0.4238 -6.0657437396400375 -0.8670700217296794 4.647163161383586 -27 -33 8
656 213 2 0.4238 -10.881352574187305 -2.640961335066324 8.49874811771288 -25 -51 24
1340 281 2 0.4238 -10.590714936399394 -0.6087671438045312 10.09385439820794 -56 -46 4
657 213 1 -0.8476 -10.942358524353232 -3.0504282083292527 7.5884373066647 -25 -51 24
639 89 1 -0.8476 -6.5074319907613045 -1.6659515635189877 5.05551413082936 -27 -33 8
176 409 2 0.4238 -12.388515874827489 1.5582186098489466 4.683883932515107 -54 -39 -19
1509 139 1 -0.8476 -9.388718551437215 -0.2553156621045094 7.004129361379915 -23 -35 -12
389 213 2 0.4238 -11.647643224044515 -2.580083393479411 7.0579660005636615 -25 -51 24
502 446 2 0.4238 -9.565934801186511 3.11416276161723 6.74366098669668 -23 -44 21
119 4 2 0.4238 -10.090227752221653 3.8539347443223146 8.40772573585996 -49 -41 13
334 318 2 0.4238 -5.388767226701156 2.6003053564412912 7.213186560476716 -62 -40 -10
1421 464 2 0.4238 -6.734623442010576 3.5297713850573373 9.601850374526984 -52 -60 2
1508 139 2 0.4238 -9.848539974777147 -0.04041133220956006 7.865773694891994 -23 -35 -12
756 446 2 0.4238 -10.301211290814557 2.459485657503663 5.440769261612418 -23 -44 21
338 318 2 0.4238 -6.89347163671243 3.141428489571492 7.5445659090940165 -62 -40 -10
1420 464 1 -0.8476 -7.563182900903063 3.457958233268787 9.04652802310684 -52 -60 2
337 318 1 -0.8476 -6.278546192642734 2.831284785770528 6.819494812742542 -62 -40 -10
757 446 1 -0.8476 -9.579464309161313 2.331703275692096 6.121065972768088 -23 -44 21
1419 464 2 0.4238 -8.251520128181667 2.927952059969945 9.541842800507139 -52 -60 2
258 461 1 -0.8476 -7.646154025934629 -1.7009616608551532 8.767804497067688 -36 -43 -16
248 435 2 0.4238 -9.316160479956956 -2.5974731989944466 11.011204736427663 -49 -46 5
290 435 1 -0.8476 -8.926167473688897 -1.750348405224587 11.372225183377333 -49 -46 5
1372 292 2 0.4238 -10.014206629355662 1.4277514078028144 9.600377247854132 -36 -23 -17
1371 292 1 -0.8476 -9.831723251535006 2.387003884931289 9.816212901812344 -36 -23 -17
260 461 2 0.4238 -8.21727166048855 -0.9540066806445857 8.427314868986235 -36 -43 -16
257 461 2 0.4238 -7.822009780007946 -1.8372481019970373 9.742766570615272 -36 -43 -16
1038 165 1 -0.8476 -5.689168579467404 -2.6428482050916067 11.650792457549562 -61 -41 8
1370 292 2 0.4238 -10.237976539102162 2.6125307123017922 10.701733474955448 -36 -23 -17
1159 3 2 0.4238 -4.218776599964102 -0.4540245772281182 9.392382745089238 -57 -20 25
289 435 2 0.4238 -9.4442876362829 -1.4614326535095614 12.17729039705077 -49 -46 5
1040 165 2 0.4238 -6.478459943636506 -2.0921631508651153 11.922482361142238 -61 -41 8
1071 165 2 0.4238 -6.004214440646418 -3.5149845815151135 11.276393538701912 -61 -41 8
561 66 2 0.4238 -6.695715217575209 2.533268882862311 5.068193157065762 -39 -24 34
1324 272 2 0.4238 -5.773797952680293 -1.9415623399006083 7.733278766520764 -43 -45 10
3 85 2 0.4238 -4.507091033812667 3.2039123287097055 10.539767657608204 -38 -50 9
1323 272 1 -0.8476 -4.784221519697021 -1.9349706821696842 7.877311444363263 -43 -45 10
1322 272 2 0.4238 -4.319028259818241 -1.8880231777880425 6.993319639642769 -43 -45 10
520 66 1 -0.8476 -7.092779138978063 2.020710238586055 4.306829568011574 -39 -24 34
256 196 2 0.4238 -7.412135951868273 0.10998054641698829 12.438188608300713 -60 -12 -3
522 66 2 0.4238 -8.023862934844939 1.741953513630241 4.5422614405791695 -39 -24 34
126 490 2 0.4238 -6.0161630079729616 7.093333863075896 -11.626273968572654 -74 -17 12
1346 255 2 0.4238 -7.359235565841046 10.79888218669491 -12.306453129080749 -24 -54 -2