LAMMPS data file via write_data, version 28 Oct 2021, timestep = 3000

1518 atoms
11 atom types
1000 bonds
1 bond types
500 angles
1 angle types

-12.410450843063826 12.410450843063826 xlo xhi
-12.410450843063826 12.410450843063826 ylo yhi
-12.410450843063826 12.410450843063826 zlo zhi

Masses

1 15.9994
2 1.00794
3 22.989769
4 35.453
5 60
6 60
7 60
8 15.9994
9 1.00794
10 22.989769
11 35.453

PairIJ Coeffs # lj/cut/coul/long

1 1 0.155354 3.169 9
1 2 0 0 9
1 3 0.234061 2.66425 9
1 4 0.044567 3.99975 9
1 5 0 0 9
1 6 0 0 9
1 7 0 0 9
1 8 0.155354 3.169 9
1 9 0 0 9
1 10 0.234061 2.66425 9
1 11 0.044567 3.99975 9
2 2 0 0 9
2 3 0 1.07975 9
2 4 0 2.41525 9
2 5 0 0 9
2 6 0 0 9
2 7 0 0 9
2 8 0 1.5845 9
2 9 0 0 9
2 10 0 1.07975 9
2 11 0 2.41525 9
3 3 0.352644 2.1595 9
3 4 0.067146 3.495 9
3 5 0 0 9
3 6 0 0 9
3 7 0 0 9
3 8 0.234061 2.66425 9
3 9 0 0 9
3 10 0.352644 2.1595 9
3 11 0.067146 3.495 9
4 4 0.0127851 4.8305 9
4 5 0 0 9
4 6 0 0 9
4 7 0 0 9
4 8 0.044567 3.99975 9
4 9 0 0 9
4 10 0.067146 3.495 9
4 11 0.0127851 4.8305 9
5 5 0 0 9
5 6 0 0 9
5 7 0 0 9
5 8 0 1.5845 9
5 9 0 0 9
5 10 0 1.07975 9
5 11 0 2.41525 9
6 6 0 0 9
6 7 0 0 9
6 8 0 1.5845 9
6 9 0 0 9
6 10 0 1.07975 9
6 11 0 2.41525 9
7 7 0 0 9
7 8 0 1.5845 9
7 9 0 0 9
7 10 0 1.07975 9
7 11 0 2.41525 9
8 8 0.155354 3.169 9
8 9 0 0 9
8 10 0.234061 2.66425 9
8 11 0.044567 3.99975 9
9 9 0 0 9
9 10 0 1.07975 9
9 11 0 2.41525 9
10 10 0.352644 2.1595 9
10 11 0.067146 3.495 9
11 11 0.0127851 4.8305 9

Bond Coeffs # harmonic

1 100000 1

Angle Coeffs # harmonic

1 100000 109.47

Atoms # full

215 387 2 0.4238 -11.030859724790872 -6.89653859826417 -6.672460589791528 -45 -37 5
893 439 1 -0.8476 -8.88903464748595 -9.070595514249852 -5.017489254317005 -38 -14 11
972 208 2 0.4238 -5.9584652897616674 -8.522295007925745 -7.867530217967719 -42 -17 -31
214 387 2 0.4238 -11.692061039780558 -8.389095129509034 -6.631035833061846 -45 -37 5
891 439 2 0.4238 -9.572807685251295 -8.399103389539292 -5.303064009961386 -38 -14 11
1464 498 2 0.4238 -8.645371479603124 -10.106534144641236 -9.766766309631135 -26 -42 25
973 208 1 -0.8476 -6.248936173548322 -8.852554832175379 -8.765614414835802 -42 -17 -31
669 241 2 0.4238 -9.43801752358547 -8.431251602481613 -7.857697859255857 -67 -35 23
1014 348 2 0.4238 -8.79146228659594 -10.718286873278496 -5.701873863859043 -62 -18 17
1011 348 1 -0.8476 -8.689710780492739 -11.553381412549955 -6.242489278085504 -62 -18 17
220 249 1 -0.8476 -5.572459996902597 -5.392009943016313 -11.291880973697994 -37 -42 -12
850 449 2 0.4238 -4.756178156818595 -4.327570737376083 -8.65207730712382 -45 -43 -3
670 241 1 -0.8476 -9.016828384567251 -8.71006815558994 -8.720751436539329 -67 -35 23
611 468 2 0.4238 -5.948653263782357 -11.684892429208332 -7.389235391414429 -42 -41 3
213 387 1 -0.8476 -10.846080830268567 -7.867484015314832 -6.520400936995355 -45 -37 5
1214 498 1 -0.8476 -8.62190389140706 -10.75797796674018 -10.525100247539621 -26 -42 25
612 468 1 -0.8476 -6.659982749079271 -11.614345167132829 -8.088544686288552 -42 -41 3
349 206 2 0.4238 -4.49541407855525 -8.377595227308529 -9.372974634712866 -57 -20 -20
1289 168 2 0.4238 -6.474758534227246 -8.716409005156361 -11.05287490951363 -45 -45 -8
671 241 2 0.4238 -8.040801441091137 -8.493349247539257 -8.700643850590257 -67 -35 23
1213 498 2 0.4238 -7.808867633050515 -10.591051740281015 -11.082870741269987 -26 -42 25
1284 187 2 0.4238 -5.087994392146711 -11.903917608132007 -5.917133105372993 -65 -22 -9
148 308 2 0.4238 -4.6933786698964175 -4.6416988111282365 -5.06386979350966 -66 -53 -2
974 208 2 0.4238 -6.528542798953417 -9.810011967267858 -8.694224729047685 -42 -17 -31
18 249 2 0.4238 -5.181764004622684 -4.548609952008679 -10.923053556077415 -37 -42 -12
1293 168 1 -0.8476 -6.8333310900878965 -9.227159897958906 -11.834257980929102 -45 -45 -8
758 326 2 0.4238 -5.938309094846504 -9.499275152244056 -5.564972669524533 -22 -2 6
783 418 2 0.4238 -4.153645244220922 -6.404231871316682 -11.930533310733448 -54 -39 6
221 249 2 0.4238 -6.538559902072356 -5.4497194478189455 -11.040244072893184 -37 -42 -12
1397 388 2 0.4238 -12.144374149545582 -11.404212181567356 -4.383814838059251 -30 -22 -12
1012 348 2 0.4238 -7.955804947210451 -11.430606925776512 -6.910553480808766 -62 -18 17
760 326 1 -0.8476 -6.123874863675606 -8.52198345427588 -5.6672813324345075 -22 -2 6
1110 1 2 0.4238 -5.14169383541607 -7.774700376777444 -4.666444650063256 -50 -35 16
1285 187 1 -0.8476 -5.205307803115406 -11.040500844529499 -5.4264703419843805 -65 -22 -9
762 326 2 0.4238 -7.05114871853592 -8.323746555309043 -5.349687808420864 -22 -2 6
1283 187 2 0.4238 -4.311476159515411 -10.617394540037555 -5.27798964469072 -65 -22 -9
429 360 2 0.4238 -11.375893360748282 -4.902178497756767 -9.86123328364953 -21 -32 11
1378 440 2 0.4238 -11.303537001719196 -7.878981879239821 -11.512474144237842 -56 -17 5
328 69 2 0.4238 -10.589326895297502 -4.265858997441741 -5.602754328397699 -15 -24 8
324 69 2 0.4238 -11.75858932020369 -5.277364078602569 -5.077102569787817 -15 -24 8
912 280 2 0.4238 -10.491967816524518 -9.072510646185442 -9.859268844115876 -35 -44 -4
835 68 2 0.4238 -9.712879438605372 -11.996246743125953 -10.216010218375107 -59 -21 0
1170 280 2 0.4238 -11.995538158619434 -9.709540565358312 -9.869067962915949 -35 -44 -4
924 91 1 -0.8476 -11.85914788476057 -10.926712392758562 -12.182747433417363 -40 -3 -18
1382 440 2 0.4238 -11.599306822260504 -6.27614015741069 -11.612711320956864 -56 -17 5
1380 440 1 -0.8476 -11.506747553337622 -7.12359493822214 -12.135448433354053 -56 -17 5
537 62 2 0.4238 -7.787104343456293 -5.565850520850187 -9.10663225966358 -58 -31 9
792 62 2 0.4238 -9.054052609465524 -5.416638976631815 -10.126046074772262 -58 -31 9
326 69 1 -0.8476 -11.134980924328698 -5.072073408542368 -5.831402616844136 -15 -24 8
873 68 2 0.4238 -11.246472863166737 -12.132830236330886 -9.67189368800151 -59 -21 0
430 360 1 -0.8476 -10.645019778687338 -4.812372642619568 -10.537813087043459 -21 -32 11
793 62 1 -0.8476 -8.144737217565087 -5.815229134451126 -10.006581760376726 -58 -31 9
923 91 2 0.4238 -11.570886386791448 -10.135161385869191 -11.643902810661805 -40 -3 -18
913 280 1 -0.8476 -11.377846247788973 -9.067467251370516 -10.323159181622266 -35 -44 -4
927 91 2 0.4238 -12.059481380844945 -11.691605821360584 -11.570534279306086 -40 -3 -18
171 258 2 0.4238 -5.693384988787187 -10.424606304708046 -1.6603860422394856 -54 -18 1
807 452 1 -0.8476 -11.49316057943137 -4.584481050709401 -2.018109056203519 -74 -14 -22
170 258 2 0.4238 -5.067541369759184 -10.574063165401583 -0.15951634169850415 -54 -18 1
877 159 2 0.4238 -10.452777364215553 -5.468021283903625 1.1256377169036043 -22 -34 31
806 452 2 0.4238 -10.50335548722182 -4.63190503046558 -2.1524120676926852 -74 -14 -22
1274 408 2 0.4238 -10.059503558508144 -11.44720338372788 -1.3827924094520423 -31 -31 -5
1106 476 1 -0.8476 -8.444472474082188 -10.431669962378121 1.6326170139625358 -43 -10 -21
1108 476 2 0.4238 -9.002799059080068 -9.796311959556693 1.099145464318953 -43 -10 -21
1217 25 2 0.4238 -12.392775607194723 -4.748323308304393 1.1294017975555306 -42 -19 -7
514 261 2 0.4238 -9.392002836201073 -6.907584913592613 2.8826712045795624 -25 -46 24
1218 25 1 -0.8476 -11.772420430935057 -4.210971417911352 0.5580758477822929 -42 -19 -7
544 486 2 0.4238 -5.281293221210959 -9.957145979148608 3.4497455563463895 -56 -32 30
309 264 2 0.4238 -8.896464636167766 -11.773866558967041 3.792322807407084 -47 -9 35
427 60 2 0.4238 -4.600060472367873 -6.366629678990481 0.12613210716793688 -43 -44 7
513 261 1 -0.8476 -8.883202648791588 -7.3918328929495845 3.5944481195099005 -25 -46 24
868 357 1 -0.8476 -8.03130259850612 -6.329336932268877 -0.8199020078941075 -38 -44 11
55 230 2 0.4238 -9.902748926506895 -10.937198205202737 2.553772550423348 -44 -26 11
246 492 1 -0.8476 -12.202241839680035 -7.985913409904668 -0.04637341803800332 -57 -33 -20
876 159 1 -0.8476 -9.551454999367309 -5.784383927879015 1.4214974458318252 -22 -34 31
1134 159 2 0.4238 -8.932676037843887 -5.809335418501274 0.6363284745786064 -22 -34 31
367 436 2 0.4238 -7.70018978773817 -4.513735656395889 3.2080529332579992 -38 -27 15
511 261 2 0.4238 -7.9621076662414545 -7.597896111875801 3.2641117742644568 -25 -46 24
36 11 1 -0.8476 -7.113495968717795 -12.312820082380716 0.3204633363363225 -23 -26 1
1384 217 2 0.4238 -5.524444131735778 -8.187878019889665 -0.9513244418262499 -57 -26 9
1007 173 2 0.4238 -5.5190988449037635 -8.195405775150828 1.8876558702071922 -34 -23 -19
1180 25 2 0.4238 -11.891936945129496 -4.47135844217882 -0.40000266533146345 -42 -19 -7
867 357 2 0.4238 -8.24493997812771 -5.563332826856137 -1.4262003293855035 -38 -44 11
1364 1 1 -0.8476 -4.503332474545258 -7.503142962593972 -3.9462005852783815 -50 -35 16
717 193 1 -0.8476 -6.164762970633278 -5.105223262464982 3.0499696564053416 -50 -34 0
866 357 2 0.4238 -7.146067940566334 -6.718833944251973 -1.0741704764279678 -38 -44 11
1067 256 2 0.4238 -9.150648488551063 -9.597801549870704 -1.7518251891459435 -37 -28 9
734 173 1 -0.8476 -6.473132773834807 -7.94485117491411 2.0520996969975727 -34 -23 -19
245 492 2 0.4238 -12.146352502889444 -7.570190324017998 0.8613989653323362 -57 -33 -20
732 173 2 0.4238 -6.983444213619671 -7.994157721419646 1.1935245360965112 -34 -23 -19
1137 217 1 -0.8476 -5.378640192177059 -7.237194015902028 -1.2250789351107532 -57 -26 9
1135 217 2 0.4238 -5.089579966185744 -7.2064431043130455 -2.181896305182672 -57 -26 9
410 436 2 0.4238 -9.19067951657857 -4.441459974704109 2.544845834885722 -38 -27 15
673 193 2 0.4238 -6.086985887163951 -5.7478794442269 3.8121664901499788 -50 -34 0
172 258 1 -0.8476 -5.423034046804859 -9.928401090078264 -0.8353460022945196 -54 -18 1
1104 476 2 0.4238 -8.073190458070794 -11.137021469531968 1.0287714418326779 -43 -10 -21
1051 432 2 0.4238 -6.287976718745077 -11.068950173402538 -3.649791316042908 -44 -19 -13
547 486 2 0.4238 -6.68687479120373 -10.457132233291318 2.7856815404617343 -56 -32 30
546 486 1 -0.8476 -6.081747446158914 -10.54283620829791 3.577184364559935 -56 -32 30
1353 84 1 -0.8476 -9.702656435425213 -8.6659412849973 -0.10306005994913114 -43 -27 -9
1356 84 2 0.4238 -10.688220453637314 -8.505760403311797 -0.15788974510236642 -43 -27 -9
1395 84 2 0.4238 -9.214750846877813 -7.825430271148891 -0.3386235464070051 -43 -27 -9
716 193 2 0.4238 -5.519984749003981 -5.362286334021963 2.33012261701826 -50 -34 0
1049 432 1 -0.8476 -6.889462743052698 -11.440454748090287 -2.9425429565896764 -44 -19 -13
1102 350 2 0.4238 -11.724604858506588 -11.61439073066739 0.4113851287527712 -64 -40 9
60 230 2 0.4238 -11.522990737436649 -10.924733611012728 2.3505794070508568 -44 -26 11
1487 408 1 -0.8476 -10.378323490325327 -12.013965943609499 -0.6230987150847813 -31 -31 -5
1240 382 2 0.4238 -9.959945843696289 -11.617416825996 -3.2172236471672555 -11 -36 19
58 230 1 -0.8476 -10.783954401296773 -11.056038281562873 3.0113248068005003 -44 -26 11
808 452 2 0.4238 -11.957059930747826 -4.93817546749447 -2.830327066147591 -74 -14 -22
895 439 2 0.4238 -9.080153540012738 -9.363108263077109 -4.080520055208535 -38 -14 11
1064 256 2 0.4238 -8.337472331468526 -10.709368013764376 -2.6292026965394513 -37 -28 9
1063 256 1 -0.8476 -9.22299497696926 -10.265177614680901 -2.493023721330479 -37 -28 9
714 59 1 -0.8476 -8.884723743805292 -4.271603897172417 -2.408938062882436 -21 -22 -13
198 405 2 0.4238 -9.350179457432732 -6.240763215702573 4.945957140236645 -42 -34 -6
774 131 2 0.4238 -10.830386195825218 -9.420218578506347 7.73896843897033 -57 -41 -14
228 254 2 0.4238 -7.785426723911194 -11.739358716611601 10.748510748797235 -45 -12 11
645 80 2 0.4238 -5.387258664457769 -10.801474439227507 10.758903561342828 -36 -13 17
192 109 2 0.4238 -11.45777309587856 -6.002773410209179 4.743789137050539 -40 -28 -10
649 344 1 -0.8476 -6.036878349644104 -8.365043574767697 9.874535510336928 -46 -32 6
227 254 1 -0.8476 -7.493847981960473 -10.784340861778086 10.69444147196918 -45 -12 11
1076 204 2 0.4238 -4.446157771277976 -5.560373900702334 9.50030146263371 -22 -12 -2
799 347 2 0.4238 -4.399268378366594 -11.641001108135455 7.28034987202105 -42 -36 13
476 254 2 0.4238 -7.385201165352444 -10.416220059433915 11.617850049074155 -45 -12 11
668 132 2 0.4238 -8.980507090345217 -5.178114457546955 11.909765858786288 -45 -41 21
648 344 2 0.4238 -6.709154641990317 -9.103290634782686 9.819432694921572 -46 -32 6
650 344 2 0.4238 -5.183565078480704 -8.65843969277385 9.443519049569632 -46 -32 6
646 80 1 -0.8476 -4.703295967538592 -11.48054034970824 11.025484045427676 -36 -13 17
1326 40 2 0.4238 -8.142917063370994 -6.875667692491178 8.138059133536016 -26 -28 -1
200 405 2 0.4238 -9.176995982803783 -5.969792547870237 6.546959698981135 -42 -34 -6
191 109 2 0.4238 -11.85434113996859 -7.580138723412136 4.5979126741562535 -40 -28 -10
199 405 1 -0.8476 -9.41924967218354 -5.5545687964781605 5.67008884309992 -42 -34 -6
1016 104 2 0.4238 -8.369616248522966 -7.997140193783385 5.017184330101292 -47 -42 -11
421 259 1 -0.8476 -9.040591656465121 -11.590426962704155 8.127848321720977 -33 -21 57
667 132 1 -0.8476 -9.23865876632546 -5.927338807703361 11.299830763807423 -45 -41 21
1325 40 1 -0.8476 -8.942351915140069 -6.315931195799261 8.356231066559586 -26 -28 -1
1074 204 2 0.4238 -5.684186882353995 -6.609575794723466 9.682199086636492 -22 -12 -2
775 131 2 0.4238 -10.197742841319617 -7.919991513357284 7.864299178425357 -57 -41 -14
776 131 1 -0.8476 -10.005144022974877 -8.897308895459407 7.952371338890204 -57 -41 -14
531 104 2 0.4238 -8.59386069364852 -8.70216703888128 6.472958495209808 -47 -42 -11
193 109 1 -0.8476 -12.08094609775081 -6.650899276905966 4.306081186113753 -40 -28 -10
800 56 2 0.4238 -10.608902381482197 -11.935406900816321 11.088828752073082 -35 -47 1
1075 204 1 -0.8476 -5.430614146787302 -5.690064189540072 9.381866127910039 -22 -12 -2
710 132 2 0.4238 -9.917465829089775 -6.506174864035769 11.751682590077651 -45 -41 21
1366 40 2 0.4238 -8.997490111336884 -6.1850231163801315 9.346091165274215 -26 -28 -1
786 104 1 -0.8476 -7.957561096958803 -8.173542922087393 5.911104343726807 -47 -42 -11
795 56 2 0.4238 -9.848773054401157 -12.34365374931095 9.702407340730252 -35 -47 1
422 259 2 0.4238 -8.08568722539058 -11.87718447729057 8.050856660416459 -33 -21 57
423 259 2 0.4238 -9.080416160463312 -10.60484815652691 8.292314652240227 -33 -21 57
644 80 2 0.4238 -5.157468393469169 -12.258114122153717 11.460347936133397 -36 -13 17
1292 168 2 0.4238 -6.8465325128273875 -8.636342570919911 12.179946237677386 -45 -45 -9
1338 16 1 -0.8476 -11.376095022127842 -9.016620973235161 4.92831995706767 -41 -41 4
825 48 1 -0.8476 -5.458486790109202 -4.241301997776997 6.967098966714284 -44 -29 21
824 48 2 0.4238 -5.6996338753933795 -4.95553081842374 6.3100408251192395 -44 -29 21
30 114 1 -0.8476 -5.226135384135713 -11.986922574778403 5.686718566115838 -48 -29 11
80 264 1 -0.8476 -8.141275055651654 -12.13385112250464 4.340136493256972 -47 -9 35
1336 16 2 0.4238 -11.800430179782431 -9.562213620139815 5.651001546205807 -41 -41 4
1339 16 2 0.4238 -10.81097581559359 -9.60765590788906 4.352717405987304 -41 -41 4
826 48 2 0.4238 -5.354182903276168 -4.645720054105898 7.875706188457007 -44 -29 21
314 483 2 0.4238 -5.16449471737375 -6.908667596303424 5.326922201709452 -38 -30 17
315 483 1 -0.8476 -5.9845264334135795 -6.339337199200087 5.385327860374501 -38 -30 17
317 483 2 0.4238 -6.717345694742086 -6.854948149514796 5.829311400336676 -38 -30 17
77 264 2 0.4238 -7.311426720523873 -11.609582208640955 4.149102566910498 -47 -9 35
31 114 2 0.4238 -5.500449102230815 -11.341976074395243 4.973418910675212 -48 -29 11
265 323 2 0.4238 -8.369132692554638 0.13467103689752413 -4.8351522426627955 -43 -25 -2
881 175 1 -0.8476 -8.070817627962015 -3.334757604024418 -4.78960384425773 -40 -8 7
5 216 1 -0.8476 -5.815048003478127 3.1291903595521795 -4.625712509643334 -43 -22 4
957 307 1 -0.8476 -11.54618672403917 1.2885972335534692 -9.34797921340486 -31 -14 11
909 307 2 0.4238 -10.688746039555642 1.413749518780163 -8.848846533150775 -31 -14 11
268 323 1 -0.8476 -7.594456343560065 0.7474489535015927 -4.991292643942744 -43 -25 -2
4 216 2 0.4238 -6.730149371254338 2.816948344257927 -4.370573519291682 -43 -22 4
371 117 2 0.4238 -9.326829156850852 -0.21815100165525259 -6.977829919325596 -53 -37 -1
256 196 2 0.4238 -6.970843072487145 2.9237828317287455 -10.441823604215475 -60 -12 -2
1139 175 2 0.4238 -7.0798213168198565 -3.309774180255893 -4.658065647176699 -40 -8 7
1010 231 2 0.4238 -5.910505442607144 0.4848809359322779 -5.778972758959388 -33 -12 10
845 175 2 0.4238 -8.35412515336659 -2.5483551776538818 -5.338519344503462 -40 -8 7
746 384 2 0.4238 -4.151458718056038 3.567423460561601 -4.187619561340412 -39 -28 8
293 196 1 -0.8476 -7.400739121593239 2.0320933454680894 -10.58352618295132 -60 -12 -2
932 450 1 -0.8476 -11.532594828140283 -2.2049238139309644 -5.972113315517905 -82 -52 -1
931 450 2 0.4238 -10.811729372333165 -1.7642301674214025 -6.507036303323116 -82 -52 -1
1013 231 1 -0.8476 -5.19098456297615 0.306484390538893 -6.450139642709438 -33 -12 10
977 475 2 0.4238 -11.124582210911441 -1.9316666259454518 -9.914675028820003 -16 -48 9
959 307 2 0.4238 -11.999122653534116 2.1731418398731694 -9.459473824901272 -31 -14 11
8 216 2 0.4238 -5.870003000081642 4.057728750188902 -4.992859217798714 -43 -22 4
851 449 1 -0.8476 -5.304822269703859 -3.610879879286502 -9.082593695922961 -45 -43 -3
335 117 1 -0.8476 -9.14371962024953 -1.1726585329071586 -6.74248662716563 -53 -37 -1
968 244 2 0.4238 -4.659959258992041 -2.6768039053061976 -4.250385447881088 -65 -35 1
884 450 2 0.4238 -12.397769504552148 -2.1512500335808173 -6.470703814463294 -82 -52 -1
965 244 1 -0.8476 -5.409188604506545 -3.3324896234276284 -4.156940442972989 -65 -35 1
292 196 2 0.4238 -7.652891144296495 1.6393170504916927 -9.699135610926529 -60 -12 -2
837 192 2 0.4238 -10.84450458402519 2.5719919487919505 -6.515393338737561 -34 -37 -17
849 449 2 0.4238 -4.780373544581879 -2.7598284592108584 -9.10839454022867 -45 -43 -3
75 191 2 0.4238 -6.688467296543831 1.0749218924623598 -11.74185743702347 -54 -55 7
391 302 1 -0.8476 -6.091400237784932 3.5673893466943554 -8.183676629972897 -38 -30 -12
392 302 2 0.4238 -5.7248245311021915 3.956233299277086 -7.338441085001625 -38 -30 -12
929 475 2 0.4238 -11.033193517606268 -1.0350756406052692 -11.27643863291118 -16 -48 9
336 117 2 0.4238 -8.720088916177824 -1.6329491174633635 -7.522659826294113 -53 -37 -1
1015 231 2 0.4238 -4.922669008058088 1.1649202457003582 -6.887283693808954 -33 -12 10
574 192 1 -0.8476 -11.368889374711108 2.801486761940126 -5.69542214058519 -34 -37 -17
29 323 2 0.4238 -7.686260316429917 1.178749572663456 -5.888818126375487 -43 -25 -2
361 224 2 0.4238 -4.237074417339517 -0.7791182520603002 -5.6204051505814165 -36 -30 38
978 475 1 -0.8476 -11.092611917727767 -1.9650341624267238 -10.913606880168832 -16 -48 9
660 330 2 0.4238 -4.151999602998503 -0.6224107179806087 -8.137276128877932 -47 -17 0
1296 316 2 0.4238 -4.520633767882136 2.8613957796399028 -9.157480329580888 -71 -28 12
1114 0 4 -1 -8.914976253255285 1.958936487119253 -7.767864589947219 0 -15 -18
575 192 2 0.4238 -11.200002227324978 2.114502294726462 -4.98864806972327 -34 -37 -17
76 191 2 0.4238 -6.170204421675941 -0.4137475071805774 -12.168347833245818 -54 -55 7
289 435 2 0.4238 -8.029040415217352 -1.8515792210714306 -12.045884281307258 -49 -46 6
1053 243 2 0.4238 -6.944922147699433 -1.390683100991179 -8.08834891348511 -42 -1 9
377 163 1 -0.8476 -11.726821717983869 0.5846947658440005 -11.990173214700993 -59 -23 9
1054 243 1 -0.8476 -7.432525128701751 -2.0090868388423733 -8.704645209021184 -42 -1 9
1052 243 2 0.4238 -6.8228032115916575 -2.751091140287258 -8.983337457857324 -42 -1 9
1371 292 1 -0.8476 -9.603007644126523 2.5341909894438963 -12.079362756180117 -36 -23 -16
248 435 2 0.4238 -7.467161194894597 -2.1843407182726082 -10.549158345783914 -49 -46 6
431 360 2 0.4238 -10.621759189545227 -3.873276300338942 -10.880679273733069 -21 -32 11
376 163 2 0.4238 -11.81191664235732 0.6377047341716668 -10.99521125378477 -59 -23 9
1370 292 2 0.4238 -10.204576192883682 1.73635393985826 -12.11900792738865 -36 -23 -16
1372 292 2 0.4238 -8.826958557954162 2.337053309427249 -11.480291913131202 -36 -23 -16
74 191 1 -0.8476 -6.000214463817593 0.5674036425624909 -12.260253208488887 -54 -55 7
1475 124 2 0.4238 -12.128395525905178 -3.0309124819988114 -12.163738596161561 -17 -35 2
290 435 1 -0.8476 -7.272499120049868 -2.2506059851311786 -11.527788283136983 -49 -46 6
390 302 2 0.4238 -7.041877302768115 3.292212367950489 -8.039208407331767 -38 -30 -12
637 70 1 -0.8476 -9.21272788279913 3.5478845641011976 1.4450503850418386 -50 -19 2
1264 481 2 0.4238 -4.917932921495982 0.5345867853878179 0.5516222753661832 -27 -50 -12
1492 166 2 0.4238 -10.087801458227359 -1.2371281945419064 2.6377417496351043 -48 -8 45
636 70 2 0.4238 -9.259747800924213 2.9688085750310282 2.2589670825301074 -50 -19 2
1505 169 1 -0.8476 -7.1367611809761815 -2.320126729465443 1.701603435748197 -40 -51 18
872 179 2 0.4238 -9.538936244982647 -1.7818158525598147 -0.657629077932965 -32 -29 40
1506 169 2 0.4238 -7.50582760880967 -3.0986864628732675 2.2091813261712456 -40 -51 18
107 112 2 0.4238 -6.478961510798552 0.07833784038383129 2.6430294544619155 -41 -30 -7
823 143 2 0.4238 -6.746461553361598 2.001739804895122 3.7520252439393165 -33 -23 11
740 394 1 -0.8476 -11.681419888337201 -2.075110512022249 2.2065334487682495 -69 -23 13
522 66 2 0.4238 -9.517262920305399 1.0009294501172032 3.0334662819020206 -39 -24 34
520 66 1 -0.8476 -9.482933412336928 1.8154986157124977 3.6125161493645113 -39 -24 34
411 436 1 -0.8476 -8.549381304515812 -3.9875362305674944 3.1634656431340993 -38 -27 15
1373 304 2 0.4238 -11.05603205454432 3.2504215429539087 4.020910978748114 -53 -43 26
712 59 2 0.4238 -8.363445431689167 -4.048069589798935 -3.2325295311577147 -21 -22 -13
273 207 2 0.4238 -6.883696753621549 3.5553129556515817 -0.8186384453569797 -54 -10 -1
640 70 2 0.4238 -8.271157586011633 3.5751708831229525 1.1093407571209788 -50 -19 2
1489 166 2 0.4238 -8.46700896547033 -1.0894450139688807 2.5041446463208317 -48 -8 45
1460 169 2 0.4238 -7.8358606074285655 -1.9653353242846325 1.0808080692234903 -40 -51 18
186 52 2 0.4238 -10.657189086577812 -0.7003646328008273 -1.824202527762127 -55 -65 0
147 112 1 -0.8476 -6.220436340289042 0.16167866955849064 3.6054329740902507 -41 -30 -7
1479 481 1 -0.8476 -5.911753352214973 0.45071825388574105 0.47891043655545573 -27 -50 -12
609 179 1 -0.8476 -9.190644687683616 -2.6102838391364127 -0.21906987185803573 -32 -29 40
146 112 2 0.4238 -6.445076623760842 -0.6862809988166845 4.085539824695433 -41 -30 -7
914 179 2 0.4238 -9.958061362505159 -3.165524716060906 0.10152254721151621 -32 -29 40
822 143 1 -0.8476 -7.1298393279871854 2.9067685280377162 3.9362688859111667 -33 -23 11
818 143 2 0.4238 -8.126170353646394 2.84168944680523 3.9918498588389912 -33 -23 11
1491 166 1 -0.8476 -9.3225570481467 -0.5935679810066166 2.6529520433184626 -48 -8 45
533 207 1 -0.8476 -6.691045922394414 3.255599658955324 0.11573724937046848 -54 -10 -1
70 79 2 0.4238 -10.143363014249186 4.062832439102442 -4.051443861077333 -52 -36 0
218 305 1 -0.8476 -4.6751126762164565 3.1021268881937196 2.5144132067536393 -30 -21 0
1367 136 2 0.4238 -11.6141633940366 -2.8516640791547925 3.9209685175001656 -62 -31 -1
219 305 2 0.4238 -4.540164590280398 3.0055420983012926 1.5282786808856095 -30 -21 0
217 305 2 0.4238 -5.621019706319027 2.874191818232042 2.7452948760660725 -30 -21 0
1426 129 2 0.4238 -6.73493764292906 0.10056035464892865 -2.4038440800776897 -38 -37 -12
967 244 2 0.4238 -5.612984809749181 -3.469816296695919 -3.1876059172521796 -65 -35 1
1299 90 1 -0.8476 -11.75378768959336 -1.6963002433690306 -3.062665558275043 -64 -56 14
153 480 2 0.4238 -5.115291365893472 -2.5060908303314466 1.9516503002520427 -84 -20 -9
1320 306 2 0.4238 -11.555522312740555 2.1549997160999155 -0.2908683679972057 -56 -18 4
1298 90 2 0.4238 -11.81530789536692 -2.4510280150503707 -2.409518153009751 -64 -56 14
156 480 1 -0.8476 -4.137134153545299 -2.3737459987567835 1.7913569493306003 -84 -20 -9
184 52 2 0.4238 -10.459268158519535 0.49013433879325063 -0.7241270302146408 -55 -65 0
1219 358 1 -0.8476 -11.703467481889636 1.106453919749832 -3.5685155021643986 -31 -49 0
1511 90 2 0.4238 -11.65613213366515 -2.063224867464317 -3.987776363946592 -64 -56 14
1319 306 1 -0.8476 -10.977854188239029 1.6177888620925405 0.3237081743071748 -56 -18 4
741 394 2 0.4238 -11.601656092067426 -2.789438423225656 1.511282612673062 -69 -23 13
937 59 2 0.4238 -8.976874396550599 -3.453960177345074 -1.8406358096565079 -21 -22 -13
1216 358 2 0.4238 -11.919642700147508 0.15913866090948936 -3.3321615015411137 -31 -49 0
1220 358 2 0.4238 -11.868521759096065 1.6936759340697325 -2.776096404622635 -31 -49 0
1425 129 1 -0.8476 -7.2375248084381925 -0.5126618528799742 -1.7944470166667479 -38 -37 -12
1478 481 2 0.4238 -6.144536900479784 -0.03424477929923597 -0.36407406140805065 -27 -50 -12
473 23 2 0.4238 -4.500333032090176 2.3532549254612167 -1.6455433306870937 -33 -65 24
474 23 1 -0.8476 -5.098598960511948 1.8522057324199839 -2.27086543975477 -33 -65 24
1433 482 1 -0.8476 -6.105827437271782 -3.1645712285326546 -1.5644776785219534 -48 -36 -1
165 482 2 0.4238 -6.801048949115421 -2.447207570909118 -1.6098347252887137 -48 -36 -1
1432 482 2 0.4238 -5.768017430730669 -3.2425181412973405 -0.6264965068515913 -48 -36 -1
475 23 2 0.4238 -5.488422091554569 2.4861037628877636 -2.938856450334276 -33 -65 24
573 207 2 0.4238 -6.090129023221235 2.4566322883627905 0.09228287611785824 -54 -10 -1
1317 306 2 0.4238 -10.247668007877541 2.197042480265427 0.6860533994875055 -56 -18 4
185 52 1 -0.8476 -10.014343611745847 -0.27740401626896194 -1.185567797923964 -55 -65 0
1423 129 2 0.4238 -8.190051008989187 -0.21446946416099522 -1.7330026818422262 -38 -37 -12
488 394 2 0.4238 -12.36314811750555 -1.403108174827043 1.9172933477817544 -69 -23 13
257 461 2 0.4238 -7.093142551088426 -1.762820538646908 9.656593682062125 -36 -43 -16
389 213 2 0.4238 -9.789151367821596 -2.6420142597023304 8.343490295423 -25 -51 24
176 409 2 0.4238 -11.975446975771298 0.0416099395583025 8.583887403093678 -54 -39 -19
1071 165 2 0.4238 -6.2332831766782215 -4.1323338189493075 10.283917901896357 -61 -41 8
1038 165 1 -0.8476 -6.535251753838973 -3.2383703553201872 10.615044524393403 -61 -41 8
1314 352 2 0.4238 -11.351822240491114 -1.7160385600409338 9.338895084528778 -36 -12 4
1340 281 2 0.4238 -10.19219750901697 -0.045563585425703934 11.86731769719569 -56 -46 4
1157 3 1 -0.8476 -5.185003635140427 0.8991904236335007 9.658335158035014 -57 -20 25
1322 272 2 0.4238 -4.7001307282197065 -2.6692820990797586 6.894043368814044 -43 -45 10
241 85 1 -0.8476 -6.159471340143291 3.5768405517066295 9.965966708413939 -38 -50 9
1159 3 2 0.4238 -5.999688240935652 0.3347301589810616 9.791279293680345 -57 -20 25
119 4 2 0.4238 -10.406138941751593 2.3600385208275547 8.775347530580154 -49 -41 13
985 147 2 0.4238 -4.516292546413548 -0.3885813862187213 6.646963011941198 -44 -40 17
1508 139 2 0.4238 -7.910557874448786 -0.628004957408832 7.766679826759125 -23 -35 -12
1343 281 2 0.4238 -9.86456352947937 -1.3949153145794355 11.007937999332404 -56 -46 4
656 213 2 0.4238 -9.211830969072118 -4.063152049617267 7.7834054631061935 -25 -51 24
597 28 2 0.4238 -5.069501781160306 -1.7034300244412535 10.920353687160661 -35 -63 -4
981 147 2 0.4238 -6.053450407789337 0.11388957923913345 6.873448905739481 -44 -40 17
1509 139 1 -0.8476 -7.691949199311583 -0.3541617758339157 6.830079446508714 -23 -35 -12
1316 352 1 -0.8476 -10.702606815289279 -2.36263577486341 9.739434362054359 -36 -12 4
1158 3 2 0.4238 -4.987352455012415 0.97421928175749 8.680938251757164 -57 -20 25
1342 281 1 -0.8476 -9.463017823185737 -0.631919497253973 11.514493712883967 -56 -46 4
1419 464 2 0.4238 -9.429038716175695 2.608743265843083 10.782942288214732 -52 -60 2
1040 165 2 0.4238 -6.4978341905225605 -3.222982743348167 11.614226149139247 -61 -41 8
982 147 1 -0.8476 -5.0968816513387765 0.403115524482514 6.8370490187693616 -44 -40 17
1315 352 2 0.4238 -11.200978897627781 -3.05666602221344 10.258998846507284 -36 -12 4
242 85 2 0.4238 -5.831164044013841 2.6322731094741894 9.968579595428254 -38 -50 9
1488 462 2 0.4238 -5.853856802514477 3.03333747726772 5.3587181195176985 -58 -21 0
1420 464 1 -0.8476 -9.111869038646645 2.9999242172601033 9.919008861918195 -52 -60 2
1421 464 2 0.4238 -8.128284901667332 3.172310541306169 9.9723512791822 -52 -60 2
1485 462 1 -0.8476 -5.111286077316934 2.9518937293769856 6.023515878496829 -58 -21 0
1486 462 2 0.4238 -5.095423156399052 2.0229376606314027 6.393366501509481 -58 -21 0
1510 139 2 0.4238 -8.538501500411986 -0.17255050833341912 6.329712527283727 -23 -35 -12
657 213 1 -0.8476 -9.330440401531153 -3.0918613175132315 7.577185798127951 -25 -51 24
260 461 2 0.4238 -7.938577751507292 -0.5342784872126334 10.321840274219957 -36 -43 -16
258 461 1 -0.8476 -7.23577473697042 -0.7730560806967031 9.651725066556478 -36 -43 -16
635 89 2 0.4238 -6.572209816992452 -1.9455525520751298 5.81586296385913 -27 -33 8
20 0 3 1 -9.034952423034898 -3.192622511880538 5.18371557539445 -10 -16 -17
561 66 2 0.4238 -9.854559141314517 1.5986492219857595 4.515218670924897 -39 -24 34
756 446 2 0.4238 -11.45022601328258 1.1454254046652306 5.122671780914727 -23 -44 21
117 4 1 -0.8476 -11.291535737817721 2.2105325260120825 8.33520999189619 -49 -41 13
1369 136 2 0.4238 -12.145259741883233 -3.247196747683571 5.413656865327402 -62 -31 -1
118 4 2 0.4238 -11.823351161175632 3.057024515204713 8.3601990738887 -49 -41 13
1368 136 1 -0.8476 -11.34517535431749 -3.2101429710134823 4.814914233664338 -62 -31 -1
757 446 1 -0.8476 -10.740491782469007 0.9695152467112269 5.804825126930952 -23 -44 21
639 89 1 -0.8476 -6.770974476795171 -2.4008759323506084 4.948007371523916 -27 -33 8
502 446 2 0.4238 -10.993505862573869 1.4046644601594416 6.668902297762825 -23 -44 21
1123 304 1 -0.8476 -11.881394931488447 3.442037563435184 4.552003634186091 -53 -43 26
638 89 2 0.4238 -6.369454178331412 -3.3167151650929725 4.9524801509694445 -27 -33 8