LAMMPS data file via write_data, version 28 Oct 2021, timestep = 1000

1518 atoms
11 atom types
1000 bonds
1 bond types
500 angles
1 angle types

-12.416436455568633 12.416436455568633 xlo xhi
-12.416436455568633 12.416436455568633 ylo yhi
-12.416436455568633 12.416436455568633 zlo zhi

Masses

1 15.9994
2 1.00794
3 22.989769
4 35.453
5 60
6 60
7 60
8 15.9994
9 1.00794
10 22.989769
11 35.453

PairIJ Coeffs # lj/cut/coul/long

1 1 0.155354 3.169 9
1 2 0 0 9
1 3 0.234061 2.66425 9
1 4 0.044567 3.99975 9
1 5 0 0 9
1 6 0 0 9
1 7 0 0 9
1 8 0.155354 3.169 9
1 9 0 0 9
1 10 0.234061 2.66425 9
1 11 0.044567 3.99975 9
2 2 0 0 9
2 3 0 1.07975 9
2 4 0 2.41525 9
2 5 0 0 9
2 6 0 0 9
2 7 0 0 9
2 8 0 1.5845 9
2 9 0 0 9
2 10 0 1.07975 9
2 11 0 2.41525 9
3 3 0.352644 2.1595 9
3 4 0.067146 3.495 9
3 5 0 0 9
3 6 0 0 9
3 7 0 0 9
3 8 0.234061 2.66425 9
3 9 0 0 9
3 10 0.352644 2.1595 9
3 11 0.067146 3.495 9
4 4 0.0127851 4.8305 9
4 5 0 0 9
4 6 0 0 9
4 7 0 0 9
4 8 0.044567 3.99975 9
4 9 0 0 9
4 10 0.067146 3.495 9
4 11 0.0127851 4.8305 9
5 5 0 0 9
5 6 0 0 9
5 7 0 0 9
5 8 0 1.5845 9
5 9 0 0 9
5 10 0 1.07975 9
5 11 0 2.41525 9
6 6 0 0 9
6 7 0 0 9
6 8 0 1.5845 9
6 9 0 0 9
6 10 0 1.07975 9
6 11 0 2.41525 9
7 7 0 0 9
7 8 0 1.5845 9
7 9 0 0 9
7 10 0 1.07975 9
7 11 0 2.41525 9
8 8 0.155354 3.169 9
8 9 0 0 9
8 10 0.234061 2.66425 9
8 11 0.044567 3.99975 9
9 9 0 0 9
9 10 0 1.07975 9
9 11 0 2.41525 9
10 10 0.352644 2.1595 9
10 11 0.067146 3.495 9
11 11 0.0127851 4.8305 9

Bond Coeffs # harmonic

1 100000 1

Angle Coeffs # harmonic

1 100000 109.47

Atoms # full

1472 156 2 0.4238 -10.974820315547795 -10.806950023900807 -11.986852018237393 -39 -23 4
991 105 2 0.4238 -10.818726045988543 -11.842143646720253 -7.284979425526361 -38 -49 20
349 206 2 0.4238 -4.7117636744528735 -6.188781890046197 -10.099610296707056 -57 -20 -20
792 62 2 0.4238 -8.058495845971844 -4.297635178464448 -8.19396147653862 -58 -31 9
1378 440 2 0.4238 -8.817960860125458 -5.08842724219656 -12.062387890688509 -56 -17 5
537 62 2 0.4238 -6.597250746879998 -4.8741561321541935 -7.747801319478294 -58 -31 9
670 241 1 -0.8476 -5.982330079626002 -6.270638174206025 -7.3992945055237715 -67 -35 23
835 68 2 0.4238 -8.103499063116356 -10.155670780008716 -10.488887092261267 -59 -21 0
1394 50 2 0.4238 -10.759263364119061 -7.372091400063082 -9.52380851896929 -52 -33 2
1387 176 2 0.4238 -10.886869539515212 -8.785528392033171 -5.364873489895173 -49 -42 -11
610 468 2 0.4238 -6.058991118197376 -10.531549746009983 -8.505248481898008 -42 -41 3
874 68 1 -0.8476 -8.809384553479283 -10.734244218771249 -10.080235894867434 -59 -21 0
891 439 2 0.4238 -7.784890559326772 -9.823598590558642 -7.094498621667443 -38 -14 11
988 105 2 0.4238 -9.506671611831571 -11.72883594900898 -6.319398307405979 -38 -49 20
1293 168 1 -0.8476 -4.389279684916753 -9.126290198793516 -12.032106422800792 -45 -45 -8
913 280 1 -0.8476 -7.914758334848179 -5.785797971153879 -10.341472490569199 -35 -44 -4
1145 50 1 -0.8476 -10.24545933379002 -8.184745656858398 -9.248823740787548 -52 -33 2
912 280 2 0.4238 -7.164257195816381 -5.229719726881265 -9.984341506449589 -35 -44 -4
989 105 1 -0.8476 -10.268273931834367 -12.314596287828275 -6.596642008134458 -38 -49 20
1349 255 2 0.4238 -6.207155676468031 -12.226378357051523 -9.885668534453831 -24 -53 -2
669 241 2 0.4238 -6.850128178130342 -6.76522342798079 -7.447569154054449 -67 -35 23
1170 280 2 0.4238 -8.739235657458426 -5.619955690309602 -9.80040774356913 -35 -44 -4
873 68 2 0.4238 -9.567347590943088 -10.163067113287353 -9.765170609745784 -59 -21 0
893 439 1 -0.8476 -8.193758093543089 -10.358930304215248 -6.355400929602654 -38 -14 11
1516 156 1 -0.8476 -11.470387234407795 -10.015850779119344 -11.628253443723926 -39 -23 4
927 91 2 0.4238 -8.688758507538472 -9.04308871970524 -12.231967933634579 -40 -3 -18
131 388 2 0.4238 -12.327376667994397 -12.023961349904832 -4.504924768937056 -30 -22 -12
400 0 4 -1 -12.195131140179248 -10.519544409499396 -8.495854044669144 0 -1 -6
611 468 2 0.4238 -6.076833765645506 -9.02546381513932 -9.136169182083343 -42 -41 3
1147 50 2 0.4238 -10.883045317826657 -8.916353531512842 -9.00747017095914 -52 -33 2
1346 255 2 0.4238 -7.558856260410968 -11.49953392445591 -9.327747214957547 -24 -53 -2
612 468 1 -0.8476 -5.772554223575433 -9.583851646632917 -8.364394968790627 -42 -41 3
671 241 2 0.4238 -5.234257521697493 -6.921776616745211 -7.271140463551123 -67 -35 23
1260 156 2 0.4238 -11.739208570848934 -10.192146075857291 -10.68132522628886 -39 -23 4
1347 255 1 -0.8476 -6.674812927742498 -11.888676815745141 -9.06880131826868 -24 -53 -2
895 439 2 0.4238 -8.534572191235902 -9.741924950325421 -5.64605768677602 -38 -14 11
604 366 2 0.4238 -9.610873936947181 -12.378111401671461 -10.785695940172165 -54 -74 8
1391 176 2 0.4238 -11.53920634887396 -9.396913630253152 -6.731378946269245 -49 -42 -11
972 208 2 0.4238 -4.449519500033292 -8.65410115360462 -5.80319037872684 -42 -17 -31
974 208 2 0.4238 -4.780366115806378 -8.846249869517376 -7.390733223739483 -42 -17 -31
881 175 1 -0.8476 -5.556774674525767 -4.584777712798796 -5.101743360828741 -40 -8 7
1143 265 2 0.4238 -11.280928539064032 -5.721451475175862 -5.077676550778104 -44 -1 -16
682 88 2 0.4238 -12.36344701020484 -6.496442266423181 -10.807712123290397 -32 -36 19
1390 176 1 -0.8476 -11.490033970233439 -8.592836704908265 -6.13887598308637 -49 -42 -11
18 249 2 0.4238 -4.68939563538111 -4.264212970322786 -10.328245236320592 -37 -42 -12
1139 175 2 0.4238 -5.590649739310375 -5.172214313915695 -5.910315247064725 -40 -8 7
430 360 1 -0.8476 -9.80330427111268 -4.982244348910503 -8.471903452672354 -21 -32 11
973 208 1 -0.8476 -4.202674515531015 -8.368179972068933 -6.729114065701999 -42 -17 -31
1182 265 2 0.4238 -11.168772519094322 -6.918355971431656 -6.1828984942139655 -44 -1 -16
429 360 2 0.4238 -9.974604170945588 -5.450071929409305 -7.604832768573782 -21 -32 11
758 326 2 0.4238 -5.1131898879949125 -10.106778944672525 -4.586082795928689 -22 -2 6
1141 265 1 -0.8476 -10.978461010409614 -5.953397085655155 -6.002194033504155 -44 -1 -16
344 414 2 0.4238 -12.190411110189554 -5.449609478909256 -7.293556855829155 -33 -35 -7
215 387 2 0.4238 -8.88859384733636 -7.488035043342977 -6.480235897278219 -45 -37 5
328 69 2 0.4238 -8.310860067018778 -7.427844439608999 -4.3444792643000145 -15 -24 8
760 326 1 -0.8476 -5.3378136929097835 -9.145198570087324 -4.42820224173481 -22 -2 6
326 69 1 -0.8476 -8.796755644136327 -8.258820376622868 -4.61541069072682 -15 -24 8
213 387 1 -0.8476 -8.425454238865186 -7.453874837567283 -7.365872393582129 -45 -37 5
431 360 2 0.4238 -10.669702003341152 -4.83936354708376 -8.950398681121616 -21 -32 11
1014 348 2 0.4238 -7.20033555367801 -11.840871823505182 -6.079140099123188 -62 -18 17
214 387 2 0.4238 -9.105944006786677 -7.46566266304217 -8.098547054369714 -45 -37 5
680 88 2 0.4238 -11.929556618802781 -4.93905477309332 -11.037834031021365 -32 -36 19
679 88 1 -0.8476 -11.770741052486489 -5.757937133798328 -10.486266596258204 -32 -36 19
712 59 2 0.4238 -6.700397680891256 -5.53770196864465 -4.225981815029513 -21 -22 -13
1214 498 1 -0.8476 -7.005216083737626 -8.530883986134254 -10.516821800021809 -26 -42 25
1213 498 2 0.4238 -6.374445137582031 -8.414631627781525 -11.284044732724158 -26 -42 25
1464 498 2 0.4238 -7.525699175386192 -7.687630402949132 -10.382515053877851 -26 -42 25
1239 382 2 0.4238 -8.858385485648197 -11.302283357711914 -3.053310757833014 -11 -36 19
1049 432 1 -0.8476 -6.323360131129715 -11.112996521134743 -2.1832362259257483 -44 -19 -13
1240 382 2 0.4238 -10.34982028324291 -10.784984623250256 -3.4712783488598085 -11 -36 19
80 264 1 -0.8476 -9.192263212904516 -12.253390754910825 3.4969298695983984 -47 -9 35
1067 256 2 0.4238 -10.164691181475098 -10.450780243585225 0.18211294792108212 -37 -28 9
1238 382 1 -0.8476 -9.390880719176494 -10.518732892353826 -3.3734904368856267 -11 -36 19
77 264 2 0.4238 -8.822599650696505 -11.574184932049995 2.8628590024165916 -47 -9 35
170 258 2 0.4238 -5.769099011751861 -10.132395520230915 0.6407976037124836 -54 -18 1
762 326 2 0.4238 -6.24732635727074 -9.07839013355895 -4.01790739372265 -22 -2 6
1433 482 1 -0.8476 -5.810453539687559 -5.935341469670919 -1.2130629166805829 -48 -36 -1
714 59 1 -0.8476 -7.319599879004051 -6.028592623384262 -3.613092057381804 -21 -22 -13
937 59 2 0.4238 -6.809655143837687 -6.359455571686804 -2.819049630109882 -21 -22 -13
1051 432 2 0.4238 -5.329147828979284 -11.186294266400537 -2.2619003523191736 -44 -19 -13
1044 250 2 0.4238 -11.960406347386877 -6.108858892836616 -2.900469791531558 -49 -15 -9
1286 432 2 0.4238 -6.750473107226065 -11.918921311968791 -2.5932101215525396 -44 -19 -13
868 357 1 -0.8476 -7.507246092670691 -7.416036871971138 0.3989423603968607 -38 -44 11
1048 250 1 -0.8476 -12.11181473477041 -5.350491764026699 -3.5344830646423144 -49 -15 -9
171 258 2 0.4238 -6.679092952940368 -10.413362352630937 -0.6857174179646304 -54 -18 1
1063 256 1 -0.8476 -9.969494598408586 -11.404026022170951 -0.0486213180970374 -37 -28 9
324 69 2 0.4238 -8.99602718526902 -8.808029519412354 -3.8038204557613966 -15 -24 8
1064 256 2 0.4238 -8.994603981737523 -11.506156145596854 -0.24654867336844255 -37 -28 9
867 357 2 0.4238 -7.2420270736806245 -6.6736070707412125 -0.2162602980299173 -38 -44 11
806 452 2 0.4238 -8.833390246835233 -4.962656433571258 -3.1026520958961505 -74 -14 -22
1274 408 2 0.4238 -12.297251939070481 -12.287114727440832 1.9602057853112065 -31 -31 -5
1432 482 2 0.4238 -5.85432105479859 -4.953560221023557 -1.0281343580156772 -48 -36 -1
866 357 2 0.4238 -7.043353765741076 -8.258292047903769 0.12429649076744376 -38 -44 11
172 258 1 -0.8476 -6.700644724488143 -10.268223249255373 0.3034681527313019 -54 -18 1
808 452 2 0.4238 -10.429866173468463 -4.6198440063058435 -3.123066322669759 -74 -14 -22
807 452 1 -0.8476 -9.5204320369597 -4.261455596523396 -2.9121046736137046 -74 -14 -22
1384 217 2 0.4238 -4.513224524749969 -6.577545893709586 3.4515752077706914 -57 -26 9
1134 159 2 0.4238 -8.010366815041277 -6.980106047047384 1.9793196464513816 -22 -34 31
877 159 2 0.4238 -9.518356683176506 -6.812340106095398 2.583053103225952 -22 -34 31
17 47 2 0.4238 -4.158291384627093 -5.373689885945619 1.8393486458640549 -39 -59 14
734 173 1 -0.8476 -5.449781808794682 -9.73899861005909 4.026596769776663 -34 -23 -19
60 230 2 0.4238 -9.448670064161055 -9.29741628665062 3.2355070035606577 -44 -26 11
58 230 1 -0.8476 -10.25330223867439 -9.020960956703943 3.761013527369112 -44 -26 11
876 159 1 -0.8476 -8.543966490138295 -6.697611806188344 2.776493369917697 -22 -34 31
55 230 2 0.4238 -11.078740858020737 -9.200221137363542 3.225724485393929 -44 -26 11
1104 476 2 0.4238 -7.180287309613569 -10.108109660423771 3.1511966576263415 -43 -10 -21
1106 476 1 -0.8476 -7.992348215687551 -10.193893971241065 2.5739475927856468 -43 -10 -21
165 482 2 0.4238 -5.124252488103968 -6.355972670056157 -0.6195860026993216 -48 -36 -1
732 173 2 0.4238 -4.981892370576094 -9.753780270989704 3.1429235611959143 -34 -23 -19
1345 429 1 -0.8476 -12.02086033196735 -7.655944164816921 -1.5147846368605773 -49 -17 21
1135 217 2 0.4238 -6.100796433449615 -6.253722082197829 3.6551111146066226 -57 -26 9
427 60 2 0.4238 -7.661774658967267 -4.6375211536866505 2.5051411401023707 -43 -44 7
1344 429 2 0.4238 -11.299962835327996 -7.987884071672449 -0.9063931303183335 -49 -17 21
1356 84 2 0.4238 -10.816772992825408 -7.960940542581904 0.9308495038786972 -43 -27 -9
1395 84 2 0.4238 -9.244478470897217 -8.273805783251117 0.6199191335961967 -43 -27 -9
1353 84 1 -0.8476 -10.183967881210162 -8.579234314165959 0.4647073869255607 -43 -27 -9
246 492 1 -0.8476 -11.473521315932818 -6.665087180832643 1.7422737328466003 -57 -33 -20
1108 476 2 0.4238 -7.747243292339138 -10.003219459894847 1.6233769827368985 -43 -10 -21
1137 217 1 -0.8476 -5.230063083025269 -5.892566082752012 3.3213339428632693 -57 -26 9
245 492 2 0.4238 -11.377897517252386 -5.863842040600438 2.332934021128981 -57 -33 -20
1396 388 1 -0.8476 -11.804063230801152 -12.085834258067578 -3.6550233493437574 -30 -22 -12
514 261 2 0.4238 -7.663145093133647 -7.342421681561152 4.0370937928068145 -25 -46 24
30 114 1 -0.8476 -4.20379035645227 -11.714149546144569 6.442031230261435 -48 -29 11
1374 177 2 0.4238 -10.821990226050923 -12.285295275176082 4.287284430388837 -42 -9 24
531 104 2 0.4238 -9.387437515554199 -10.633386302038684 5.462886921209442 -47 -42 -11
1376 177 2 0.4238 -12.17907643602982 -11.386717763398194 4.154800892578955 -42 -9 24
31 114 2 0.4238 -4.1695657153236745 -10.791556934366984 6.057753944508239 -48 -29 11
677 245 2 0.4238 -12.339019768805061 -12.102791361116704 6.190976078970536 -74 -29 12
227 254 1 -0.8476 -6.777919195787627 -10.987347135658457 8.25703822297919 -45 -12 11
786 104 1 -0.8476 -8.870568407483503 -10.846286176722263 6.292066117997493 -47 -42 -11
649 344 1 -0.8476 -5.143323151140121 -8.143812372123596 9.678718958614635 -46 -32 6
1375 177 1 -0.8476 -11.764406204937593 -12.178048771852664 4.60409384561283 -42 -9 24
1021 212 2 0.4238 -12.315574536387341 -9.509299352613672 8.962898270307427 -33 -55 -2
650 344 2 0.4238 -4.205582607794195 -8.319180252091215 9.378874016742436 -46 -32 6
675 245 1 -0.8476 -12.400126905472044 -12.177711985801375 7.186300362164619 -74 -29 12
1019 212 2 0.4238 -12.030186060542274 -7.990555618508485 8.43503141146148 -33 -55 -2
476 254 2 0.4238 -5.9534745487489165 -11.47104907432182 7.963198287762193 -45 -12 11
1016 104 2 0.4238 -9.202738036327563 -10.280122018914835 7.04647914288276 -47 -42 -11
683 448 2 0.4238 -9.200266464535185 -12.2803657551292 8.456501144004267 -49 -15 5
411 436 1 -0.8476 -9.952713103566643 -4.148109116379404 4.66179177583129 -38 -27 15
228 254 2 0.4238 -7.201763133907973 -10.541666144377677 7.468531372390288 -45 -12 11
1483 428 1 -0.8476 -11.91700019752638 -5.926964045074918 11.155455847983632 -48 -45 8
1443 428 2 0.4238 -11.108599023006105 -5.544407173813465 11.60284342502877 -48 -45 8
20 0 3 1 -11.07414246245035 -5.114233218045666 6.4711642536186105 -10 -16 -17
199 405 1 -0.8476 -10.355035069326417 -7.208105580140928 5.800976203270057 -42 -34 -6
774 131 2 0.4238 -10.319604699628282 -9.70165875353829 9.303915472725603 -57 -41 -14
32 114 2 0.4238 -4.415013610714391 -12.369615797783538 5.716933758770807 -48 -29 11
776 131 1 -0.8476 -9.68424746521814 -9.37636872959825 8.603540128863418 -57 -41 -14
648 344 2 0.4238 -5.531681962302725 -8.980417288283741 10.06509653539431 -46 -32 6
198 405 2 0.4238 -9.859851500328341 -7.614865956671192 6.568671945841221 -42 -34 -6
775 131 2 0.4238 -9.2113109908965 -8.560267822608873 8.935696260944066 -57 -41 -14
846 238 2 0.4238 -11.96175789018718 -10.215520642337822 11.328235534603373 -46 0 -9
795 56 2 0.4238 -10.037638138103253 -11.941126848207839 10.537280926547506 -35 -47 1
797 56 1 -0.8476 -9.281025116961544 -12.084714888770513 11.17519767772312 -35 -47 1
800 56 2 0.4238 -8.832506661160664 -11.210767034387622 11.362451037671761 -35 -47 1
847 238 1 -0.8476 -11.956784700387713 -10.651267489174055 10.428170442856345 -46 0 -9
710 132 2 0.4238 -8.710843250586773 -4.583151323949061 10.56955198928322 -45 -41 21
1380 440 1 -0.8476 -9.53888251442914 -4.86157066268776 12.115637061195454 -56 -17 4
645 80 2 0.4238 -6.169292104334824 -10.985827308005328 11.566285677459835 -36 -13 17
673 193 2 0.4238 -6.445516078472246 -4.206864954007159 6.291936108956733 -50 -34 0
644 80 2 0.4238 -6.368404307558089 -10.861606598187375 9.950242236461829 -36 -13 17
1075 204 1 -0.8476 -4.461094782919206 -4.874825320740573 9.310995127549802 -22 -12 -2
646 80 1 -0.8476 -6.04906080371728 -10.390005113407632 10.772208981623361 -36 -13 17
315 483 1 -0.8476 -6.218507857775198 -6.081636145117487 6.690514682997879 -38 -30 17
824 48 2 0.4238 -7.958673131062439 -5.476527748894481 7.001815233728394 -44 -29 21
924 91 1 -0.8476 -8.799461862479278 -9.279120118072246 11.635476792023894 -40 -3 -19
513 261 1 -0.8476 -7.114196002431579 -7.736131872835568 4.774430019467609 -25 -46 24
200 405 2 0.4238 -10.230934200806336 -7.774841037118074 4.9864638888904125 -42 -34 -6
1325 40 1 -0.8476 -8.107607094619379 -7.36400916316898 9.636192246273989 -26 -28 -1
511 261 2 0.4238 -6.79358618387182 -8.643687336201907 4.50319247545951 -25 -46 24
656 213 2 0.4238 -10.137690135287915 -6.977660035240903 8.637531191487131 -25 -51 24
826 48 2 0.4238 -8.860272472720593 -5.099170944740868 8.31001737167346 -44 -29 21
389 213 2 0.4238 -11.305743903055129 -6.27480962225253 9.536600525342763 -25 -51 24
657 213 1 -0.8476 -10.999455162729477 -6.471367722033843 8.60516617069253 -25 -51 24
923 91 2 0.4238 -8.497480331777345 -8.51289837889191 11.06826551538727 -40 -3 -19
668 132 2 0.4238 -7.140535460324104 -4.473395800929023 10.135087308848156 -45 -41 21
825 48 1 -0.8476 -8.886544366812414 -5.301280044280051 7.330997739341267 -44 -29 21
314 483 2 0.4238 -5.47519882099256 -6.4059210284216865 7.275620231161518 -38 -30 17
1074 204 2 0.4238 -4.392846862141333 -5.73790224775841 8.810537584165026 -22 -12 -2
1292 168 2 0.4238 -4.9638380683781715 -9.245186802994688 11.990974218737101 -45 -45 -9
1366 40 2 0.4238 -8.079927298926533 -6.38853786765843 9.854612628694166 -26 -28 -1
317 483 2 0.4238 -6.455395665968594 -6.79221179765715 6.027955843432444 -38 -30 17
667 132 1 -0.8476 -8.047603817960676 -4.781143598617887 9.847797154670523 -45 -41 21
1007 173 2 0.4238 -4.785465573343312 -9.561015070796397 4.752560504319746 -34 -23 -19
1326 40 2 0.4238 -7.221889687471673 -7.648739263179961 9.269516977726095 -26 -28 -1
423 259 2 0.4238 -8.178317709344068 -12.374879843303646 5.7666862493711335 -33 -21 57
110 93 1 -0.8476 -10.660752381297279 -2.4706244029828532 -11.971396402267262 -66 -33 -22
112 93 2 0.4238 -10.60893868959062 -2.1625769198339277 -11.021428182629169 -66 -33 -22
932 450 1 -0.8476 -11.052821986551486 -0.8742930000517504 -5.8668979998693835 -82 -52 -1
1372 292 2 0.4238 -7.694587353280379 2.857249190794267 -12.154002667648085 -36 -23 -16
884 450 2 0.4238 -11.384870161015915 0.01046973121723127 -5.539855583638034 -82 -52 -1
978 475 1 -0.8476 -10.535809307140932 -1.004591403034473 -9.549517963745876 -16 -48 9
931 450 2 0.4238 -10.351850054119073 -0.7297948100024705 -6.565308884096864 -82 -52 -1
793 62 1 -0.8476 -7.084452520734496 -4.083863197582939 -8.119405082980315 -58 -31 9
292 196 2 0.4238 -7.36677728303791 3.4090683757669886 -9.660880889270091 -60 -12 -2
595 28 2 0.4238 -4.282535147817583 -2.0125546154299965 -11.0245934371467 -35 -63 -3
108 93 2 0.4238 -11.570032758181036 -2.271924963795069 -12.337108158737653 -66 -33 -22
371 117 2 0.4238 -8.283459725248475 0.09556860282916801 -7.688871705864935 -53 -37 -1
335 117 1 -0.8476 -8.789494501108646 -0.7325693376197115 -7.447761685729846 -53 -37 -1
977 475 2 0.4238 -9.845215921573311 -0.7912931203317299 -8.858430305010819 -16 -48 9
929 475 2 0.4238 -11.243129431379645 -0.2977137068819786 -9.543186248088455 -16 -48 9
336 117 2 0.4238 -8.258637116027145 -1.2682446068921251 -6.7910577293026515 -53 -37 -1
1053 243 2 0.4238 -6.6976523189173935 -2.725366063481184 -5.457110102738089 -42 -1 9
959 307 2 0.4238 -11.087337994003843 2.3530035897340493 -8.765582154791868 -31 -14 11
220 249 1 -0.8476 -5.502187621656811 -3.737440363952601 -10.577037250576083 -37 -42 -12
75 191 2 0.4238 -4.862578113467964 1.0633279753373461 -8.879327670224828 -54 -55 7
378 163 2 0.4238 -11.396609168080456 2.132022481781961 -11.935102676367933 -59 -23 9
289 435 2 0.4238 -7.79171469672825 -0.13732930153337009 -11.214529734150547 -49 -46 6
221 249 2 0.4238 -5.992988796605305 -3.470292540647767 -9.747721506647116 -37 -42 -12
957 307 1 -0.8476 -10.355166133902337 1.7205692624275226 -9.01850226450771 -31 -14 11
248 435 2 0.4238 -7.059061035342909 0.6527239367643194 -9.987456340683842 -49 -46 6
1054 243 1 -0.8476 -6.789239219471329 -1.9443299101379505 -6.074857450905867 -42 -1 9
596 28 1 -0.8476 -4.426148868210602 -1.1814362675931882 -11.5618408803193 -35 -63 -3
377 163 1 -0.8476 -10.486006467173766 1.7688856534297557 -11.737740410691579 -59 -23 9
376 163 2 0.4238 -10.355056646636331 1.717459521805969 -10.747677227872853 -59 -23 9
909 307 2 0.4238 -9.52174077410521 1.9590037380551664 -8.519935771751436 -31 -14 11
290 435 1 -0.8476 -6.919553858802063 0.024374832421615977 -10.752788870548043 -49 -46 6
1114 0 4 -1 -7.148279432581049 1.914630750400283 -8.179184015380613 0 -15 -18
632 86 1 -0.8476 -11.564949120512182 4.037121763104203 -7.879269860458855 -47 -53 3
597 28 2 0.4238 -5.3776681411191 -0.8870705523257403 -11.4725241422122 -35 -63 -3
1052 243 2 0.4238 -6.7311572795647505 -2.2598780241843137 -7.021996929168816 -42 -1 9
391 302 1 -0.8476 -5.290071572049055 3.9359440030724997 -6.782400799354026 -38 -30 -12
390 302 2 0.4238 -5.971050024970661 3.313231190693637 -7.167777637111447 -38 -30 -12
845 175 2 0.4238 -4.830971480011487 -3.9059358259050754 -5.213105278707094 -40 -8 7
29 323 2 0.4238 -6.972450669545638 0.7171822300189756 -4.283454991013976 -43 -25 -2
1042 458 2 0.4238 -12.37349027821652 -1.7952258537409609 -6.208260319351955 -19 -21 1
575 192 2 0.4238 -9.130936406969589 2.548114113119322 -5.0168377180334 -34 -37 -17
1511 90 2 0.4238 -10.073769260132853 -1.4618799333733108 -4.3727301308566755 -64 -56 14
265 323 2 0.4238 -6.30619859513644 -0.12304574956591985 -5.515038462609227 -43 -25 -2
268 323 1 -0.8476 -6.131433143867291 0.5526392494385117 -4.798850902487534 -43 -25 -2
837 192 2 0.4238 -8.609343896576824 2.9934231428995517 -6.49883438795696 -34 -37 -17
958 433 2 0.4238 -12.120653591087207 2.6946136931423794 -4.889860061784399 -33 -12 -20
574 192 1 -0.8476 -9.369986903805863 3.044090929449176 -5.851630924294053 -34 -37 -17
1010 231 2 0.4238 -4.449947325774429 0.2447920217933639 -4.695155816916185 -33 -12 10
962 433 2 0.4238 -11.866996545854787 2.4941836374840918 -6.49053463860077 -33 -12 -20
961 433 1 -0.8476 -12.355747114633877 2.1445534413332954 -5.691222712115793 -33 -12 -20
967 244 2 0.4238 -4.629819013074305 -3.069043903574782 -1.8806291080465964 -65 -35 1
1425 129 1 -0.8476 -5.741315452254204 -3.222288362504889 -0.6823151670602154 -38 -37 -12
1460 169 2 0.4238 -6.673544912429359 -1.7270310544198129 2.1868072491026584 -40 -51 18
1264 481 2 0.4238 -6.116393371248115 2.585196541824322 0.7398788626343631 -27 -50 -12
1220 358 2 0.4238 -8.702859481247605 1.504357860950007 -2.470823962248602 -31 -49 0
609 179 1 -0.8476 -9.282947294296635 -3.613116613147632 -0.1341503626429752 -32 -29 40
1479 481 1 -0.8476 -6.251721812090584 3.057257452457625 1.6110058287896951 -27 -50 -12
1506 169 2 0.4238 -5.632623263783846 -0.5345249466106825 1.785454328779343 -40 -51 18
1478 481 2 0.4238 -5.787252327408244 2.5530177472808937 2.3390360392173672 -27 -50 -12
1505 169 1 -0.8476 -6.155175566365249 -0.9449721079968203 2.532776019591765 -40 -51 18
294 339 2 0.4238 -11.567208519443636 4.0930823360920385 -2.6227253327552287 -75 -28 31
636 70 2 0.4238 -8.27163109155154 2.790076156225254 4.057819743314148 -50 -19 2
5 216 1 -0.8476 -4.5743415191452454 2.583763354793069 -3.442840312369931 -43 -22 4
4 216 2 0.4238 -4.977589092696613 1.7990691700675026 -3.9136521670714313 -43 -22 4
473 23 2 0.4238 -7.585672381141865 1.0025724433438068 -0.615465732217217 -33 -65 24
340 339 1 -0.8476 -11.334312140266578 4.025747417842165 -1.6525485368245256 -75 -28 31
475 23 2 0.4238 -6.465410934001505 1.8182084457974046 -1.4794247471128994 -33 -65 24
1219 358 1 -0.8476 -8.424207727023925 0.9913249759592979 -3.2827155146722067 -31 -49 0
1298 90 2 0.4238 -9.714935682473886 -2.5215284662700963 -3.1831685462634525 -64 -56 14
339 339 2 0.4238 -12.173226597770618 3.9618625771731324 -1.1120313551680496 -75 -28 31
1216 358 2 0.4238 -8.847508751696353 0.08547764590598028 -3.2661403998280143 -31 -49 0
474 23 1 -0.8476 -7.229558251252325 1.9094355786294965 -0.8408530666478811 -33 -65 24
1299 90 1 -0.8476 -9.762273158045314 -1.5528159029576436 -3.4268347124041867 -64 -56 14
872 179 2 0.4238 -8.906981439665477 -2.692566942013272 -0.24024246677060646 -32 -29 40
8 216 2 0.4238 -5.064462430321373 3.4159734167940545 -3.7021191871324888 -43 -22 4
1423 129 2 0.4238 -6.4171376976455425 -2.5245285826693387 -0.44480118438147365 -38 -37 -12
1426 129 2 0.4238 -5.034942310903643 -3.2564902006696173 0.02470996394592362 -38 -37 -12
914 179 2 0.4238 -9.461155642369231 -4.006375063463642 -1.0361520586921706 -32 -29 40
153 480 2 0.4238 -4.745172371918123 1.1440481844392494 4.098949770663573 -84 -20 -9
186 52 2 0.4238 -9.042089717269963 -0.7919090204458534 -1.1469760629517118 -55 -65 0
488 394 2 0.4238 -11.823375385132968 -2.922685592511794 1.906485175752044 -69 -23 13
185 52 1 -0.8476 -8.336565387018656 -0.8291294260322495 -0.43925583428804593 -55 -65 0
420 341 2 0.4238 -5.072077195851172 -1.5579429441361174 3.7360677350874134 -14 -28 35
741 394 2 0.4238 -10.586814367157523 -3.733370538889911 1.2133908223722365 -69 -23 13
410 436 2 0.4238 -10.043722131519727 -3.6428792822722027 3.8036090229980957 -38 -27 15
740 394 1 -0.8476 -11.117889460508616 -3.616199961454994 2.0525855053425577 -69 -23 13
184 52 2 0.4238 -8.679264872936157 -0.39905356243798806 0.3959748334932609 -55 -65 0
393 480 2 0.4238 -4.307373600162194 0.9224653253319524 2.5414176858023723 -84 -20 -9
1319 306 1 -0.8476 -9.54300297316967 0.7778897441123522 1.4421127954790638 -56 -18 4
70 79 2 0.4238 -8.390829614510661 3.422796309701191 -0.39048784150482163 -52 -36 0
156 480 1 -0.8476 -4.5287766299108965 1.6047615124458492 3.2381746567403713 -84 -20 -9
1320 306 2 0.4238 -9.661030079357213 1.3717559322406263 0.6462410309821252 -56 -18 4
637 70 1 -0.8476 -8.528965396303466 2.755562561692212 3.0921049127190248 -50 -19 2
1489 166 2 0.4238 -8.519039090277545 -0.925424862653669 3.878358060426759 -48 -8 45
640 70 2 0.4238 -7.7146920944936515 2.881647533813174 2.525466643112498 -50 -19 2
372 403 1 -0.8476 -12.31790685577046 -1.4191372773445519 0.538822715700876 -54 -28 4
990 488 2 0.4238 -10.508066164443646 3.80450121399571 2.8188881327039894 -33 -35 -22
159 22 1 -0.8476 -4.303391297915816 0.01920642332735234 0.9377936271730611 -31 2 3
1317 306 2 0.4238 -9.368297779530911 1.337270613733395 2.2524145057234684 -56 -18 4
450 43 2 0.4238 -11.413071751088532 0.9545404130041142 -1.2330616922738695 -56 -20 3
212 43 2 0.4238 -10.642287957978631 2.3328310440953874 -1.6488499935440046 -56 -20 3
452 43 1 -0.8476 -10.521099102540978 1.4002637361737964 -1.308777698832074 -56 -20 3
417 403 2 0.4238 -12.162405655226976 -0.968205380703381 1.4177409195318944 -54 -28 4
428 60 1 -0.8476 -7.806122668820168 -3.7619346479403024 2.044131990424079 -43 -44 7
426 60 2 0.4238 -8.555909786881575 -3.8501439088809946 1.3883455665025046 -43 -44 7
418 341 1 -0.8476 -4.52294844020337 -1.9092386435810944 4.494399582907999 -14 -28 35
1314 352 2 0.4238 -12.29897249169515 -1.0682244579654334 10.744462018107821 -36 -12 4
419 341 2 0.4238 -5.08928981638062 -2.4977238161626953 5.071429262103102 -14 -28 35
619 246 1 -0.8476 -11.536902749403312 -0.4045933114107214 6.885634727277001 -55 -39 -7
561 66 2 0.4238 -8.622795749379938 2.0509282368607966 6.1790486902007515 -39 -24 34
1157 3 1 -0.8476 -5.03672800161033 1.199203998008958 11.479870681820604 -57 -20 25
520 66 1 -0.8476 -7.939542959614585 1.6743474503801963 5.553452991189712 -39 -24 34
716 193 2 0.4238 -7.43413341799732 -2.9475673656573207 6.613617980929405 -50 -34 0
502 446 2 0.4238 -10.385021044955929 2.741557962777888 8.046519514674305 -23 -44 21
367 436 2 0.4238 -9.013620571583475 -4.070120619864898 4.996516410052212 -38 -27 15
818 143 2 0.4238 -6.156488898682105 1.3638872356560032 5.7947556539465985 -33 -23 11
822 143 1 -0.8476 -5.277624935011241 0.9218181944089636 5.974173279101656 -33 -23 11
147 112 1 -0.8476 -8.971687327096522 -1.846737745778512 7.593956465760453 -41 -30 -7
621 246 2 0.4238 -11.154217344610581 0.3608987597086841 6.368341956392811 -55 -39 -7
617 246 2 0.4238 -11.819124185184032 -0.08715415770130974 7.79095292688211 -55 -39 -7
522 66 2 0.4238 -8.329903259255307 0.8948483459007193 5.063537317350221 -39 -24 34
1322 272 2 0.4238 -4.641592015584076 -2.2992743683034167 7.918240582374935 -43 -45 10
1373 304 2 0.4238 -12.112481874044015 4.122792356571299 4.979095185192648 -53 -43 26
981 147 2 0.4238 -4.719291569237343 -0.2457035461268955 8.682655016713934 -44 -40 17
757 446 1 -0.8476 -10.177634148345406 2.588230756019005 7.08034184085902 -23 -44 21
823 143 2 0.4238 -5.424038664973074 0.10055356587150932 6.525630301260076 -33 -23 11
635 89 2 0.4238 -11.707635939122405 -2.1936120948898754 7.108544556285857 -27 -33 8
176 409 2 0.4238 -10.456387992744222 0.1612415469607935 9.985980001537275 -54 -39 -19
146 112 2 0.4238 -9.678829742896005 -2.5045821271871187 7.853201374999365 -41 -30 -7
1159 3 2 0.4238 -4.594253574477264 1.3800526451935955 10.60150365129314 -57 -20 25
174 409 2 0.4238 -11.69267417407538 1.1614000295960167 9.614557563382863 -54 -39 -19
756 446 2 0.4238 -10.711127376364988 3.2220373288241575 6.520260043118718 -23 -44 21
175 409 1 -0.8476 -11.376041538106259 0.21301090904122333 9.596653823398036 -54 -39 -19
1491 166 1 -0.8476 -9.20246732848458 -0.8020566443733212 4.597888331108319 -48 -8 45
1492 166 2 0.4238 -10.064945130234314 -1.220874855587379 4.313739267462363 -48 -8 45
639 89 1 -0.8476 -11.61938529978051 -3.123973759896792 7.464432762358957 -27 -33 8
107 112 2 0.4238 -9.361075592943488 -1.1660071763588586 6.97347262819946 -41 -30 -7
638 89 2 0.4238 -12.386009694430863 -3.321211815000689 8.07549882950902 -27 -33 8
717 193 1 -0.8476 -6.6242321529829065 -3.2407666503432626 6.105570723233772 -50 -34 0
1509 139 1 -0.8476 -6.147897988814802 -0.929730046199932 8.314933833447906 -23 -35 -12
1508 139 2 0.4238 -6.333920785269528 -0.8754207259823161 9.295986125809257 -23 -35 -12
1038 165 1 -0.8476 -5.854758752679551 -3.485649577456515 11.405145565693559 -61 -41 8
1158 3 2 0.4238 -5.669841038609984 0.4313047347978394 11.382313485297523 -57 -20 25
260 461 2 0.4238 -7.730854081573142 -0.8560784338450844 11.170014928391808 -36 -43 -16
1371 292 1 -0.8476 -8.408738515598625 2.922378475644811 11.981902283729205 -36 -23 -17
1420 464 1 -0.8476 -6.773881998004961 4.129196512274319 10.064535904965368 -52 -60 2
1382 440 2 0.4238 -9.954895577108143 -3.9877317235154557 12.367344214869817 -56 -17 4