
group   solvent type 1
5023 atoms in group solvent
group   water   empty
0 atoms in group water
group   ions    type 2 3
190 atoms in group ions
group   wall    type 4 5
0 atoms in group wall
group   flying  type 6 7 8
0 atoms in group flying
group   eq_run  union solvent ions flying
5213 atoms in group eq_run
            
######################################################################
pair_style   lj/cut/coul/long 2.500000 3.500000
kspace_style pppm 0.0001

# LJ (neq? False)
# real lj particles
pair_coeff  * *         1.  1.  2.5   # solvent + ions
pair_coeff  4*5 4*5     0   0   2.5   # wall atoms

        
pair_modify  tail no shift yes mix arithmetic # LB mixing rule
neigh_modify delay 2 every 1 check yes page 500000 one 50000
######################################################################
timestep 0.005000
thermo 2000
fix  eqmd   eq_run nvt temp 1.000000 1.000000 0.500000
run 200 # (neq? False) MD run
PPPM initialization ...
  using 12-bit tables for long-range coulomb (../kspace.cpp:340)
  G vector (1/distance) = 0.8056051
  grid = 36 36 36
  stencil order = 5
  estimated absolute RMS force accuracy = 7.7986815e-05
  estimated relative force accuracy = 7.7986815e-05
  using single precision KISS FFT
  3d grid and FFT values/proc = 12167 6480
Per MPI rank memory allocation (min/avg/max) = 5.918 | 5.942 | 5.966 Mbytes
Step Temp Atoms Density TotEng PotEng KinEng E_coul E_vdwl E_long Enthalpy Press 
     800     0.995708     5213     0.753989 -15838.533264 -23622.980576  7784.447313   -58.971400 -23268.757017  -295.252159 -9194.393783     0.960983 
    1000     1.019512     5213     0.753989 -15566.116721 -23536.664620  7970.547899   -63.125856 -23178.138001  -295.400763 -8473.744361     1.025814 
Loop time of 0.783975 on 8 procs for 200 steps with 5213 atoms

Performance: 110207.556 tau/day, 255.110 timesteps/s
100.1% CPU use with 8 MPI tasks x no OpenMP threads

MPI task timing breakdown:
Section |  min time  |  avg time  |  max time  |%varavg| %total
---------------------------------------------------------------
Pair    | 0.31564    | 0.32895    | 0.34309    |   1.3 | 41.96
Kspace  | 0.37018    | 0.38456    | 0.39824    |   1.3 | 49.05
Neigh   | 0.046748   | 0.047799   | 0.04919    |   0.3 |  6.10
Comm    | 0.017316   | 0.017752   | 0.018538   |   0.3 |  2.26
Output  | 2.9688e-05 | 3.0882e-05 | 3.721e-05  |   0.0 |  0.00
Modify  | 0.003162   | 0.0033064  | 0.0034275  |   0.2 |  0.42
Other   |            | 0.001583   |            |       |  0.20

Nlocal:        651.625 ave         661 max         642 min
Histogram: 1 1 0 1 1 1 0 1 1 1
Nghost:        3118.38 ave        3129 max        3095 min
Histogram: 1 0 0 0 0 2 0 1 1 3
Neighs:        56029.8 ave       57104 max       54298 min
Histogram: 1 0 0 1 0 1 2 1 1 1

Total # of neighbors = 448238
Ave neighs/atom = 85.984654
Neighbor list builds = 28
Dangerous builds = 0
unfix    eqmd

group   solvent type 1
5023 atoms in group solvent
group   water   empty
0 atoms in group water
group   ions    type 2 3
190 atoms in group ions
group   wall    type 4 5
0 atoms in group wall
group   flying  type 6 7 8
0 atoms in group flying
group   eq_run  union solvent ions flying
5213 atoms in group eq_run
            
######################################################################
pair_style   lj/cut/coul/long 2.500000 3.500000
kspace_style pppm 0.0001

# LJ (neq? False)
# real lj particles
pair_coeff  * *         1.  1.  2.5   # solvent + ions
pair_coeff  4*5 4*5     0   0   2.5   # wall atoms

        
pair_modify  tail no shift yes mix arithmetic # LB mixing rule
neigh_modify delay 2 every 1 check yes page 500000 one 50000
######################################################################
# shake is off; should be a dummy run
timestep 0.005000
thermo 2000
fix  eqmd   eq_run nvt temp 1.000000 1.000000 0.500000
run 0 # (neq? False) MD run
PPPM initialization ...
  using 12-bit tables for long-range coulomb (../kspace.cpp:340)
  G vector (1/distance) = 0.8056051
  grid = 36 36 36
  stencil order = 5
  estimated absolute RMS force accuracy = 7.7986815e-05
  estimated relative force accuracy = 7.7986815e-05
  using single precision KISS FFT
  3d grid and FFT values/proc = 12167 6480
Per MPI rank memory allocation (min/avg/max) = 5.918 | 5.942 | 5.966 Mbytes
Step Temp Atoms Density TotEng PotEng KinEng E_coul E_vdwl E_long Enthalpy Press 
    1000     1.019512     5213     0.753989 -15566.116721 -23536.664620  7970.547899   -63.125856 -23178.138001  -295.400763 -8473.744361     1.025814 
Loop time of 1.9725e-06 on 8 procs for 0 steps with 5213 atoms

0.0% CPU use with 8 MPI tasks x no OpenMP threads

MPI task timing breakdown:
Section |  min time  |  avg time  |  max time  |%varavg| %total
---------------------------------------------------------------
Pair    | 0          | 0          | 0          |   0.0 |  0.00
Kspace  | 0          | 0          | 0          |   0.0 |  0.00
Neigh   | 0          | 0          | 0          |   0.0 |  0.00
Comm    | 0          | 0          | 0          |   0.0 |  0.00
Output  | 0          | 0          | 0          |   0.0 |  0.00
Modify  | 0          | 0          | 0          |   0.0 |  0.00
Other   |            | 1.972e-06  |            |       |100.00

Nlocal:        651.625 ave         663 max         640 min
Histogram: 1 1 1 1 0 0 1 0 2 1
Nghost:        3119.50 ave        3132 max        3093 min
Histogram: 1 0 0 0 0 1 2 0 2 2
Neighs:        56027.8 ave       56900 max       54119 min
Histogram: 1 0 0 1 0 0 2 0 1 3

Total # of neighbors = 448222
Ave neighs/atom = 85.981585
Neighbor list builds = 0
Dangerous builds = 0
unfix    eqmd
# selected_velocity_lj 1881 lj-solvent vel -0.177851 -0.559988 -0.174357
group widom_test id  1881  # select_molecule
1 atoms in group widom_test
set atom 1881 type 6
Setting atom values ...
  1 settings made for type
run 0 post no # done selecting a flying molecule
WARNING: No fixes defined, atoms won't move (../verlet.cpp:55)
PPPM initialization ...
  using 12-bit tables for long-range coulomb (../kspace.cpp:340)
  G vector (1/distance) = 0.8056051
  grid = 36 36 36
  stencil order = 5
  estimated absolute RMS force accuracy = 7.7986815e-05
  estimated relative force accuracy = 7.7986815e-05
  using single precision KISS FFT
  3d grid and FFT values/proc = 12167 6480
Per MPI rank memory allocation (min/avg/max) = 5.918 | 5.942 | 5.966 Mbytes
Step Temp Atoms Density TotEng PotEng KinEng E_coul E_vdwl E_long Enthalpy Press 
    1000     1.019512     5213     0.753989 -15566.116721 -23536.664620  7970.547899   -63.125856 -23178.138001  -295.400763 -8473.744361     1.025814 
Loop time of 1.4425e-06 on 8 procs for 0 steps with 5213 atoms

group noneq_run_rigid    intersect   all         water               # select_lj no selection
0 atoms in group noneq_run_rigid
group noneq_run          subtract    all         noneq_run_rigid     # select_lj no selection
5213 atoms in group noneq_run
run 0 post no # mom rev random number
WARNING: No fixes defined, atoms won't move (../verlet.cpp:55)
PPPM initialization ...
  using 12-bit tables for long-range coulomb (../kspace.cpp:340)
  G vector (1/distance) = 0.8056051
  grid = 36 36 36
  stencil order = 5
  estimated absolute RMS force accuracy = 7.7986815e-05
  estimated relative force accuracy = 7.7986815e-05
  using single precision KISS FFT
  3d grid and FFT values/proc = 12167 6480
Per MPI rank memory allocation (min/avg/max) = 5.918 | 5.942 | 5.966 Mbytes
Step Temp Atoms Density TotEng PotEng KinEng E_coul E_vdwl E_long Enthalpy Press 
    1000     1.019512     5213     0.753989 -15566.116721 -23536.664620  7970.547899   -63.125856 -23178.138001  -295.400763 -8473.744361     1.025814 
Loop time of 1.39938e-06 on 8 procs for 0 steps with 5213 atoms

run 0 post no # momentum reversal applied
WARNING: No fixes defined, atoms won't move (../verlet.cpp:55)
PPPM initialization ...
  using 12-bit tables for long-range coulomb (../kspace.cpp:340)
  G vector (1/distance) = 0.8056051
  grid = 36 36 36
  stencil order = 5
  estimated absolute RMS force accuracy = 7.7986815e-05
  estimated relative force accuracy = 7.7986815e-05
  using single precision KISS FFT
  3d grid and FFT values/proc = 12167 6480
Per MPI rank memory allocation (min/avg/max) = 5.918 | 5.942 | 5.966 Mbytes
Step Temp Atoms Density TotEng PotEng KinEng E_coul E_vdwl E_long Enthalpy Press 
    1000     1.019512     5213     0.753989 -15566.116721 -23536.664620  7970.547899   -63.125856 -23178.138001  -295.400763 -8473.744361     1.025814 
Loop time of 1.50187e-06 on 8 procs for 0 steps with 5213 atoms

######################################################################
pair_style   lj/cut/coul/long/neq 2.500000 3.500000 1000 400 1.000000 5 0 0 1.000000 1.000000 11 1.000000
kspace_style pppm 0.0001

# LJ (neq? True)
# real lj particles
pair_coeff  * *         1.  1.  2.5   # solvent + ions
pair_coeff  4*5 4*5     0   0   2.5   # wall atoms

        
pair_modify  tail no shift yes mix arithmetic # LB mixing rule
neigh_modify delay 2 every 1 check yes page 500000 one 50000
######################################################################
timestep 0.010000
fix  eqmd  noneq_run           nve                 # nve for non-rigid
run 400 # (neq? True) MD run
PPPM initialization ...
  using 12-bit tables for long-range coulomb (../kspace.cpp:340)
  G vector (1/distance) = 0.8056051
  grid = 36 36 36
  stencil order = 5
  estimated absolute RMS force accuracy = 7.7986815e-05
  estimated relative force accuracy = 7.7986815e-05
  using single precision KISS FFT
  3d grid and FFT values/proc = 12167 6480
Neighbor list info ...
  update every 1 steps, delay 2 steps, check yes
  max neighbors/atom: 50000, page size: 500000
  master list distance cutoff = 3.8
  ghost atom cutoff = 3.8
  binsize = 1.9, bins = 11 11 11
  1 neighbor lists, perpetual/occasional/extra = 1 0 0
  (1) pair lj/cut/coul/long/neq, perpetual
      attributes: half, newton on
      pair build: half/bin/atomonly/newton
      stencil: half/bin/3d
      bin: standard
Per MPI rank memory allocation (min/avg/max) = 5.918 | 5.942 | 5.965 Mbytes
Step Temp Atoms Density TotEng PotEng KinEng E_coul E_vdwl E_long Enthalpy Press 
    1000     1.019512     5213     0.753989 -15566.116721 -23536.664620  7970.547899   -63.125856 -23178.138001  -295.400763 -8473.744361     1.025814 
    1400     1.014329     5213     0.753989 -15564.227794 -23494.248098  7930.020304   -54.032983 -23154.928158  -285.286957 -8057.485399     1.085747 
Loop time of 1.70438 on 8 procs for 400 steps with 5213 atoms

Performance: 202771.412 tau/day, 234.689 timesteps/s
100.1% CPU use with 8 MPI tasks x no OpenMP threads

MPI task timing breakdown:
Section |  min time  |  avg time  |  max time  |%varavg| %total
---------------------------------------------------------------
Pair    | 0.68314    | 0.70484    | 0.72218    |   1.6 | 41.35
Kspace  | 0.75743    | 0.77393    | 0.79631    |   1.6 | 45.41
Neigh   | 0.17521    | 0.17699    | 0.17927    |   0.4 | 10.38
Comm    | 0.040054   | 0.041706   | 0.043061   |   0.5 |  2.45
Output  | 3.4747e-05 | 3.734e-05  | 4.3824e-05 |   0.0 |  0.00
Modify  | 0.0029698  | 0.0030879  | 0.0032207  |   0.1 |  0.18
Other   |            | 0.003782   |            |       |  0.22

Nlocal:        651.625 ave         671 max         634 min
Histogram: 1 0 2 0 1 2 0 1 0 1
Nghost:        3135.75 ave        3154 max        3108 min
Histogram: 1 0 0 0 2 1 1 1 0 2
Neighs:        56012.0 ave       58119 max       54380 min
Histogram: 1 1 1 2 0 0 1 1 0 1

Total # of neighbors = 448096
Ave neighs/atom = 85.957414
Neighbor list builds = 101
Dangerous builds = 0
unfix    eqmd
run 0 post no # momentum reversal applied
WARNING: No fixes defined, atoms won't move (../verlet.cpp:55)
PPPM initialization ...
  using 12-bit tables for long-range coulomb (../kspace.cpp:340)
  G vector (1/distance) = 0.8056051
  grid = 36 36 36
  stencil order = 5
  estimated absolute RMS force accuracy = 7.7986815e-05
  estimated relative force accuracy = 7.7986815e-05
  using single precision KISS FFT
  3d grid and FFT values/proc = 12167 6480
Per MPI rank memory allocation (min/avg/max) = 5.918 | 5.942 | 5.966 Mbytes
Step Temp Atoms Density TotEng PotEng KinEng E_coul E_vdwl E_long Enthalpy Press 
    1400     1.014329     5213     0.753989 -15564.227794 -23494.248098  7930.020304   -54.032983 -23154.928158  -285.286957 -8057.485399     1.085747 
Loop time of 1.65988e-06 on 8 procs for 0 steps with 5213 atoms


group   solvent type 1
5023 atoms in group solvent
group   water   empty
0 atoms in group water
group   ions    type 2 3
190 atoms in group ions
group   wall    type 4 5
0 atoms in group wall
group   flying  type 6 7 8
1 atoms in group flying
group   eq_run  union solvent ions flying
5213 atoms in group eq_run
            
######################################################################
pair_style   lj/cut/coul/long 2.500000 3.500000
kspace_style pppm 0.0001

# LJ (neq? False)
# real lj particles
pair_coeff  * *         1.  1.  2.5   # solvent + ions
pair_coeff  4*5 4*5     0   0   2.5   # wall atoms

        
pair_modify  tail no shift yes mix arithmetic # LB mixing rule
neigh_modify delay 2 every 1 check yes page 500000 one 50000
######################################################################
# dealing with ideal flying particles: force field=simple_lj

# Non-interacting flying lj molecule (trial deletion)
# real lj particles
pair_coeff  * *         1.  1.  2.5   # solvent + ions
pair_coeff  4*5 4*5     0   0   2.5   # wall atoms
# flying particles
pair_coeff  * 6         0   0   2.5   # flying solvent  non-interacting
pair_coeff  * 7         0   0   2.5   # flying cation   non-interacting
pair_coeff  * 8         0   0   2.5   # flying anion    non-interacting

# flying solvetn or ions
set type 6  charge 0.                       # non-interacting
Setting atom values ...
  1 settings made for charge
set type 7  charge 0.                       # non-interacting
Setting atom values ...
  0 settings made for charge
set type 8  charge 0.                       # non-interacting
Setting atom values ...
  0 settings made for charge
        
run 0 post no # making flying moelcule non-interacting
WARNING: No fixes defined, atoms won't move (../verlet.cpp:55)
PPPM initialization ...
  using 12-bit tables for long-range coulomb (../kspace.cpp:340)
  G vector (1/distance) = 0.8056051
  grid = 36 36 36
  stencil order = 5
  estimated absolute RMS force accuracy = 7.7986815e-05
  estimated relative force accuracy = 7.7986815e-05
  using single precision KISS FFT
  3d grid and FFT values/proc = 12167 6480
Neighbor list info ...
  update every 1 steps, delay 2 steps, check yes
  max neighbors/atom: 50000, page size: 500000
  master list distance cutoff = 3.8
  ghost atom cutoff = 3.8
  binsize = 1.9, bins = 11 11 11
  1 neighbor lists, perpetual/occasional/extra = 1 0 0
  (1) pair lj/cut/coul/long, perpetual
      attributes: half, newton on
      pair build: half/bin/atomonly/newton
      stencil: half/bin/3d
      bin: standard
Per MPI rank memory allocation (min/avg/max) = 5.917 | 5.942 | 5.966 Mbytes
Step Temp Atoms Density TotEng PotEng KinEng E_coul E_vdwl E_long Enthalpy Press 
    1400     1.014329     5213     0.753989 -15559.285267 -23489.305570  7930.020304   -54.032983 -23149.985630  -285.286957 -8047.359524     1.086496 
Loop time of 1.48763e-06 on 8 procs for 0 steps with 5213 atoms

# done post_propagate after NEMD
set type 6 type 1
Setting atom values ...
  1 settings made for type
run 0 post no # lj type change (reject_delete)
WARNING: No fixes defined, atoms won't move (../verlet.cpp:55)
PPPM initialization ...
  using 12-bit tables for long-range coulomb (../kspace.cpp:340)
  G vector (1/distance) = 0.8056051
  grid = 36 36 36
  stencil order = 5
  estimated absolute RMS force accuracy = 7.7986815e-05
  estimated relative force accuracy = 7.7986815e-05
  using single precision KISS FFT
  3d grid and FFT values/proc = 12167 6480
Per MPI rank memory allocation (min/avg/max) = 5.917 | 5.942 | 5.966 Mbytes
Step Temp Atoms Density TotEng PotEng KinEng E_coul E_vdwl E_long Enthalpy Press 
    1400     1.014329     5213     0.753989 -13709.040521 -21639.060825  7930.020304   -54.032983 -21299.740885  -285.286957  1452.009378     2.192837 
Loop time of 1.402e-06 on 8 procs for 0 steps with 5213 atoms

set atom 1881 charge 0.000000
Setting atom values ...
  1 settings made for charge
run 0 post no # charge return (reject_delete)
WARNING: No fixes defined, atoms won't move (../verlet.cpp:55)
PPPM initialization ...
  using 12-bit tables for long-range coulomb (../kspace.cpp:340)
  G vector (1/distance) = 0.8056051
  grid = 36 36 36
  stencil order = 5
  estimated absolute RMS force accuracy = 7.7986815e-05
  estimated relative force accuracy = 7.7986815e-05
  using single precision KISS FFT
  3d grid and FFT values/proc = 12167 6480
Per MPI rank memory allocation (min/avg/max) = 5.917 | 5.942 | 5.966 Mbytes
Step Temp Atoms Density TotEng PotEng KinEng E_coul E_vdwl E_long Enthalpy Press 
    1400     1.014329     5213     0.753989 -13709.040521 -21639.060825  7930.020304   -54.032983 -21299.740885  -285.286957  1452.009378     2.192837 
Loop time of 1.71987e-06 on 8 procs for 0 steps with 5213 atoms

run 0 post no # return_position back to old
WARNING: No fixes defined, atoms won't move (../verlet.cpp:55)
PPPM initialization ...
  using 12-bit tables for long-range coulomb (../kspace.cpp:340)
  G vector (1/distance) = 0.8056051
  grid = 36 36 36
  stencil order = 5
  estimated absolute RMS force accuracy = 7.7986815e-05
  estimated relative force accuracy = 7.7986815e-05
  using single precision KISS FFT
  3d grid and FFT values/proc = 12167 6480
Per MPI rank memory allocation (min/avg/max) = 5.918 | 5.942 | 5.966 Mbytes
Step Temp Atoms Density TotEng PotEng KinEng E_coul E_vdwl E_long Enthalpy Press 
    1400     1.019512     5213     0.753989 -15566.116721 -23536.664620  7970.547899   -63.125856 -23178.138001  -295.400763 -8473.744361     1.025814 
Loop time of 1.58025e-06 on 8 procs for 0 steps with 5213 atoms

group widom_test         delete
group noneq_run          delete
group noneq_run_rigid    delete
reset_timestep 1000

group   solvent delete
group   water   delete
group   ions    delete
group   wall    delete
group   flying  delete
group   eq_run  delete
        
write_data restart_after_MC_4.data pair ij
System init for write_data ...
PPPM initialization ...
  using 12-bit tables for long-range coulomb (../kspace.cpp:340)
  G vector (1/distance) = 0.8056051
  grid = 36 36 36
  stencil order = 5
  estimated absolute RMS force accuracy = 7.7986815e-05
  estimated relative force accuracy = 7.7986815e-05
  using single precision KISS FFT
  3d grid and FFT values/proc = 12167 6480
log logfile_hneqMDMC.5
