
group   solvent type 1
5024 atoms in group solvent
group   water   empty
0 atoms in group water
group   ions    type 2 3
190 atoms in group ions
group   wall    type 4 5
0 atoms in group wall
group   flying  type 6 7 8
0 atoms in group flying
group   eq_run  union solvent ions flying
5214 atoms in group eq_run
            
######################################################################
pair_style   lj/cut/coul/long 2.500000 3.500000
kspace_style pppm 0.0001

# LJ (neq? False)
# real lj particles
pair_coeff  * *         1.  1.  2.5   # solvent + ions
pair_coeff  4*5 4*5     0   0   2.5   # wall atoms

        
pair_modify  tail no shift yes mix arithmetic # LB mixing rule
neigh_modify delay 2 every 1 check yes page 500000 one 50000
######################################################################
timestep 0.005000
thermo 2000
fix  eqmd   eq_run nvt temp 1.000000 1.000000 0.500000
run 200 # (neq? False) MD run
PPPM initialization ...
  using 12-bit tables for long-range coulomb (../kspace.cpp:340)
  G vector (1/distance) = 0.80560326
  grid = 36 36 36
  stencil order = 5
  estimated absolute RMS force accuracy = 7.7980482e-05
  estimated relative force accuracy = 7.7980482e-05
  using single precision KISS FFT
  3d grid and FFT values/proc = 12167 6480
Per MPI rank memory allocation (min/avg/max) = 5.918 | 5.942 | 5.966 Mbytes
Step Temp Atoms Density TotEng PotEng KinEng E_coul E_vdwl E_long Enthalpy Press 
     400     0.979807     5214     0.754133 -15843.002517 -23504.606895  7661.604377   -60.140791 -23143.885264  -300.580839 -8725.756192     1.029412 
     600     1.006234     5214     0.754133 -15578.307955 -23446.557998  7868.250043   -61.341018 -23085.436481  -299.780499 -7685.112643     1.141642 
Loop time of 0.806329 on 8 procs for 200 steps with 5214 atoms

Performance: 107152.325 tau/day, 248.038 timesteps/s
100.1% CPU use with 8 MPI tasks x no OpenMP threads

MPI task timing breakdown:
Section |  min time  |  avg time  |  max time  |%varavg| %total
---------------------------------------------------------------
Pair    | 0.32094    | 0.33096    | 0.35232    |   1.7 | 41.05
Kspace  | 0.38226    | 0.40419    | 0.41425    |   1.5 | 50.13
Neigh   | 0.046463   | 0.047598   | 0.049589   |   0.4 |  5.90
Comm    | 0.017394   | 0.018626   | 0.019089   |   0.4 |  2.31
Output  | 2.9673e-05 | 3.0724e-05 | 3.7128e-05 |   0.0 |  0.00
Modify  | 0.0030982  | 0.0033456  | 0.0036121  |   0.3 |  0.41
Other   |            | 0.00158    |            |       |  0.20

Nlocal:        651.750 ave         660 max         647 min
Histogram: 2 0 1 2 2 0 0 0 0 1
Nghost:        3143.25 ave        3160 max        3130 min
Histogram: 1 1 0 1 1 2 1 0 0 1
Neighs:        56004.5 ave       57552 max       55187 min
Histogram: 2 0 2 2 0 1 0 0 0 1

Total # of neighbors = 448036
Ave neighs/atom = 85.929421
Neighbor list builds = 28
Dangerous builds = 0
unfix    eqmd

group   solvent type 1
5024 atoms in group solvent
group   water   empty
0 atoms in group water
group   ions    type 2 3
190 atoms in group ions
group   wall    type 4 5
0 atoms in group wall
group   flying  type 6 7 8
0 atoms in group flying
group   eq_run  union solvent ions flying
5214 atoms in group eq_run
            
######################################################################
pair_style   lj/cut/coul/long 2.500000 3.500000
kspace_style pppm 0.0001

# LJ (neq? False)
# real lj particles
pair_coeff  * *         1.  1.  2.5   # solvent + ions
pair_coeff  4*5 4*5     0   0   2.5   # wall atoms

        
pair_modify  tail no shift yes mix arithmetic # LB mixing rule
neigh_modify delay 2 every 1 check yes page 500000 one 50000
######################################################################
# shake is off; should be a dummy run
timestep 0.005000
thermo 2000
fix  eqmd   eq_run nvt temp 1.000000 1.000000 0.500000
run 0 # (neq? False) MD run
PPPM initialization ...
  using 12-bit tables for long-range coulomb (../kspace.cpp:340)
  G vector (1/distance) = 0.80560326
  grid = 36 36 36
  stencil order = 5
  estimated absolute RMS force accuracy = 7.7980482e-05
  estimated relative force accuracy = 7.7980482e-05
  using single precision KISS FFT
  3d grid and FFT values/proc = 12167 6480
Per MPI rank memory allocation (min/avg/max) = 5.918 | 5.942 | 5.966 Mbytes
Step Temp Atoms Density TotEng PotEng KinEng E_coul E_vdwl E_long Enthalpy Press 
     600     1.006234     5214     0.754133 -15578.307955 -23446.557998  7868.250043   -61.341018 -23085.436481  -299.780500 -7685.112643     1.141642 
Loop time of 1.36813e-06 on 8 procs for 0 steps with 5214 atoms

0.0% CPU use with 8 MPI tasks x no OpenMP threads

MPI task timing breakdown:
Section |  min time  |  avg time  |  max time  |%varavg| %total
---------------------------------------------------------------
Pair    | 0          | 0          | 0          |   0.0 |  0.00
Kspace  | 0          | 0          | 0          |   0.0 |  0.00
Neigh   | 0          | 0          | 0          |   0.0 |  0.00
Comm    | 0          | 0          | 0          |   0.0 |  0.00
Output  | 0          | 0          | 0          |   0.0 |  0.00
Modify  | 0          | 0          | 0          |   0.0 |  0.00
Other   |            | 1.368e-06  |            |       |100.00

Nlocal:        651.750 ave         657 max         644 min
Histogram: 1 0 1 0 0 1 2 0 1 2
Nghost:        3142.25 ave        3164 max        3127 min
Histogram: 1 1 1 2 0 2 0 0 0 1
Neighs:        56010.2 ave       57421 max       54984 min
Histogram: 2 0 1 2 0 1 1 0 0 1

Total # of neighbors = 448082
Ave neighs/atom = 85.938243
Neighbor list builds = 0
Dangerous builds = 0
unfix    eqmd
#chosen_cation deletion_move 4.087006 -8.873756 5.670108 # select_molecule
#chosen_anion deletion_move 2.737254 -7.810548 6.139667 # select_molecule
# selected_velocity_salt 4098 cation vel 0.987166 0.268137 0.560374
# selected_velocity_salt 4083 anion vel -0.613184 -1.096887 -0.694544
group widom_test id  4098 4083 # select_molecule
2 atoms in group widom_test
set atom 4098 type 7
Setting atom values ...
  1 settings made for type
set atom 4083 type 8
Setting atom values ...
  1 settings made for type
run 0 post no # done selecting a flying molecule
WARNING: No fixes defined, atoms won't move (../verlet.cpp:55)
PPPM initialization ...
  using 12-bit tables for long-range coulomb (../kspace.cpp:340)
  G vector (1/distance) = 0.80560326
  grid = 36 36 36
  stencil order = 5
  estimated absolute RMS force accuracy = 7.7980482e-05
  estimated relative force accuracy = 7.7980482e-05
  using single precision KISS FFT
  3d grid and FFT values/proc = 12167 6480
Per MPI rank memory allocation (min/avg/max) = 5.918 | 5.942 | 5.966 Mbytes
Step Temp Atoms Density TotEng PotEng KinEng E_coul E_vdwl E_long Enthalpy Press 
     600     1.006234     5214     0.754133 -15578.307955 -23446.557998  7868.250043   -61.341018 -23085.436481  -299.780500 -7685.112643     1.141642 
Loop time of 1.67663e-06 on 8 procs for 0 steps with 5214 atoms

group noneq_run_rigid    intersect   all         water               # select_salt no selection
0 atoms in group noneq_run_rigid
group noneq_run_pre      subtract    all         noneq_run_rigid     # select_salt no selection
5214 atoms in group noneq_run_pre
group noneq_run          subtract    noneq_run_pre   widom_test      # select_salt no selection
5212 atoms in group noneq_run
group noneq_run_pre      delete
run 0 post no # mom rev random number
WARNING: No fixes defined, atoms won't move (../verlet.cpp:55)
PPPM initialization ...
  using 12-bit tables for long-range coulomb (../kspace.cpp:340)
  G vector (1/distance) = 0.80560326
  grid = 36 36 36
  stencil order = 5
  estimated absolute RMS force accuracy = 7.7980482e-05
  estimated relative force accuracy = 7.7980482e-05
  using single precision KISS FFT
  3d grid and FFT values/proc = 12167 6480
Per MPI rank memory allocation (min/avg/max) = 5.918 | 5.942 | 5.966 Mbytes
Step Temp Atoms Density TotEng PotEng KinEng E_coul E_vdwl E_long Enthalpy Press 
     600     1.006234     5214     0.754133 -15578.307955 -23446.557998  7868.250043   -61.341018 -23085.436481  -299.780500 -7685.112643     1.141642 
Loop time of 1.54138e-06 on 8 procs for 0 steps with 5214 atoms

run 0 post no # momentum reversal applied
WARNING: No fixes defined, atoms won't move (../verlet.cpp:55)
PPPM initialization ...
  using 12-bit tables for long-range coulomb (../kspace.cpp:340)
  G vector (1/distance) = 0.80560326
  grid = 36 36 36
  stencil order = 5
  estimated absolute RMS force accuracy = 7.7980482e-05
  estimated relative force accuracy = 7.7980482e-05
  using single precision KISS FFT
  3d grid and FFT values/proc = 12167 6480
Per MPI rank memory allocation (min/avg/max) = 5.918 | 5.942 | 5.966 Mbytes
Step Temp Atoms Density TotEng PotEng KinEng E_coul E_vdwl E_long Enthalpy Press 
     600     1.006234     5214     0.754133 -15578.307955 -23446.557998  7868.250043   -61.341018 -23085.436481  -299.780500 -7685.112643     1.141642 
Loop time of 1.5745e-06 on 8 procs for 0 steps with 5214 atoms

######################################################################
pair_style   lj/cut/coul/long/neq 2.500000 3.500000 600 400 1.000000 5 0 0 1.000000 1.000000 11 1.000000
kspace_style pppm 0.0001

# LJ (neq? True)
# real lj particles
pair_coeff  * *         1.  1.  2.5   # solvent + ions
pair_coeff  4*5 4*5     0   0   2.5   # wall atoms

        
pair_modify  tail no shift yes mix arithmetic # LB mixing rule
neigh_modify delay 2 every 1 check yes page 500000 one 50000
######################################################################
timestep 0.010000
fix  eqmd  noneq_run           nve                 # nve for non-rigid
run 400 # (neq? True) MD run
PPPM initialization ...
  using 12-bit tables for long-range coulomb (../kspace.cpp:340)
  G vector (1/distance) = 0.80560326
  grid = 36 36 36
  stencil order = 5
  estimated absolute RMS force accuracy = 7.7980482e-05
  estimated relative force accuracy = 7.7980482e-05
  using single precision KISS FFT
  3d grid and FFT values/proc = 12167 6480
Neighbor list info ...
  update every 1 steps, delay 2 steps, check yes
  max neighbors/atom: 50000, page size: 500000
  master list distance cutoff = 3.8
  ghost atom cutoff = 3.8
  binsize = 1.9, bins = 11 11 11
  1 neighbor lists, perpetual/occasional/extra = 1 0 0
  (1) pair lj/cut/coul/long/neq, perpetual
      attributes: half, newton on
      pair build: half/bin/atomonly/newton
      stencil: half/bin/3d
      bin: standard
Per MPI rank memory allocation (min/avg/max) = 5.918 | 5.942 | 5.966 Mbytes
Step Temp Atoms Density TotEng PotEng KinEng E_coul E_vdwl E_long Enthalpy Press 
     600     1.006234     5214     0.754133 -15578.307955 -23446.557998  7868.250043   -61.341018 -23085.436481  -299.780500 -7685.112643     1.141642 
    1000     1.024401     5214     0.754133 -15576.783680 -23587.089374  8010.305694   -64.625650 -23219.994918  -302.468806 -8521.047951     1.020515 
Loop time of 1.70231 on 8 procs for 400 steps with 5214 atoms

Performance: 203017.738 tau/day, 234.974 timesteps/s
100.1% CPU use with 8 MPI tasks x no OpenMP threads

MPI task timing breakdown:
Section |  min time  |  avg time  |  max time  |%varavg| %total
---------------------------------------------------------------
Pair    | 0.69095    | 0.7009     | 0.7171     |   1.2 | 41.17
Kspace  | 0.75646    | 0.7732     | 0.78366    |   1.2 | 45.42
Neigh   | 0.17738    | 0.17897    | 0.18133    |   0.3 | 10.51
Comm    | 0.040948   | 0.042295   | 0.043439   |   0.4 |  2.48
Output  | 3.7771e-05 | 4.0868e-05 | 5.0598e-05 |   0.0 |  0.00
Modify  | 0.0029746  | 0.0030718  | 0.0031196  |   0.1 |  0.18
Other   |            | 0.003833   |            |       |  0.23

Nlocal:        651.750 ave         667 max         642 min
Histogram: 3 0 1 0 2 0 0 0 1 1
Nghost:        3152.50 ave        3171 max        3138 min
Histogram: 1 1 2 0 0 0 3 0 0 1
Neighs:        56028.4 ave       57366 max       54402 min
Histogram: 1 0 2 0 1 0 1 1 0 2

Total # of neighbors = 448227
Ave neighs/atom = 85.966053
Neighbor list builds = 102
Dangerous builds = 0
unfix    eqmd
run 0 post no # momentum reversal applied
WARNING: No fixes defined, atoms won't move (../verlet.cpp:55)
PPPM initialization ...
  using 12-bit tables for long-range coulomb (../kspace.cpp:340)
  G vector (1/distance) = 0.80560326
  grid = 36 36 36
  stencil order = 5
  estimated absolute RMS force accuracy = 7.7980482e-05
  estimated relative force accuracy = 7.7980482e-05
  using single precision KISS FFT
  3d grid and FFT values/proc = 12167 6480
Per MPI rank memory allocation (min/avg/max) = 5.918 | 5.942 | 5.966 Mbytes
Step Temp Atoms Density TotEng PotEng KinEng E_coul E_vdwl E_long Enthalpy Press 
    1000     1.024401     5214     0.754133 -15576.783681 -23587.089375  8010.305694   -64.625650 -23219.994918  -302.468807 -8521.047952     1.020515 
Loop time of 6.10612e-06 on 8 procs for 0 steps with 5214 atoms


group   solvent type 1
5024 atoms in group solvent
group   water   empty
0 atoms in group water
group   ions    type 2 3
190 atoms in group ions
group   wall    type 4 5
0 atoms in group wall
group   flying  type 6 7 8
2 atoms in group flying
group   eq_run  union solvent ions flying
5214 atoms in group eq_run
            
######################################################################
pair_style   lj/cut/coul/long 2.500000 3.500000
kspace_style pppm 0.0001

# LJ (neq? False)
# real lj particles
pair_coeff  * *         1.  1.  2.5   # solvent + ions
pair_coeff  4*5 4*5     0   0   2.5   # wall atoms

        
pair_modify  tail no shift yes mix arithmetic # LB mixing rule
neigh_modify delay 2 every 1 check yes page 500000 one 50000
######################################################################
# dealing with ideal flying particles: force field=simple_lj

# Non-interacting flying lj molecule (trial deletion)
# real lj particles
pair_coeff  * *         1.  1.  2.5   # solvent + ions
pair_coeff  4*5 4*5     0   0   2.5   # wall atoms
# flying particles
pair_coeff  * 6         0   0   2.5   # flying solvent  non-interacting
pair_coeff  * 7         0   0   2.5   # flying cation   non-interacting
pair_coeff  * 8         0   0   2.5   # flying anion    non-interacting

# flying solvetn or ions
set type 6  charge 0.                       # non-interacting
Setting atom values ...
  0 settings made for charge
set type 7  charge 0.                       # non-interacting
Setting atom values ...
  1 settings made for charge
set type 8  charge 0.                       # non-interacting
Setting atom values ...
  1 settings made for charge
        
run 0 post no # making flying moelcule non-interacting
WARNING: No fixes defined, atoms won't move (../verlet.cpp:55)
PPPM initialization ...
  using 12-bit tables for long-range coulomb (../kspace.cpp:340)
  G vector (1/distance) = 0.80539789
  grid = 36 36 36
  stencil order = 5
  estimated absolute RMS force accuracy = 7.7286548e-05
  estimated relative force accuracy = 7.7286548e-05
  using single precision KISS FFT
  3d grid and FFT values/proc = 12167 6480
Neighbor list info ...
  update every 1 steps, delay 2 steps, check yes
  max neighbors/atom: 50000, page size: 500000
  master list distance cutoff = 3.8
  ghost atom cutoff = 3.8
  binsize = 1.9, bins = 11 11 11
  1 neighbor lists, perpetual/occasional/extra = 1 0 0
  (1) pair lj/cut/coul/long, perpetual
      attributes: half, newton on
      pair build: half/bin/atomonly/newton
      stencil: half/bin/3d
      bin: standard
Per MPI rank memory allocation (min/avg/max) = 5.918 | 5.942 | 5.966 Mbytes
Step Temp Atoms Density TotEng PotEng KinEng E_coul E_vdwl E_long Enthalpy Press 
    1000     1.024401     5214     0.754133 -15562.087370 -23572.393064  8010.305694   -64.493277 -23211.268737  -296.631050 -8496.323339     1.021965 
Loop time of 1.26425e-06 on 8 procs for 0 steps with 5214 atoms

# done post_propagate after NEMD
# selected salt 4098/4083
#The center of bimodal dist. on a positive side=0.800000
set type 7 type 2
Setting atom values ...
  1 settings made for type
set type 8 type 3
Setting atom values ...
  1 settings made for type
run 0 post no # lj type change (reject_delete)
WARNING: No fixes defined, atoms won't move (../verlet.cpp:55)
PPPM initialization ...
  using 12-bit tables for long-range coulomb (../kspace.cpp:340)
  G vector (1/distance) = 0.80539789
  grid = 36 36 36
  stencil order = 5
  estimated absolute RMS force accuracy = 7.7286548e-05
  estimated relative force accuracy = 7.7286548e-05
  using single precision KISS FFT
  3d grid and FFT values/proc = 12167 6480
Per MPI rank memory allocation (min/avg/max) = 5.918 | 5.942 | 5.966 Mbytes
Step Temp Atoms Density TotEng PotEng KinEng E_coul E_vdwl E_long Enthalpy Press 
    1000     1.024401     5214     0.754133 982096.675049 974086.369355  8010.305694   -64.493277 974447.493682  -296.631050 4985379.345784   579.019625 
Loop time of 1.68625e-06 on 8 procs for 0 steps with 5214 atoms

set atom 4098 charge 1.000000
Setting atom values ...
  1 settings made for charge
set atom 4083 charge -1.000000
Setting atom values ...
  1 settings made for charge
run 0 post no # charge return (reject_delete)
WARNING: No fixes defined, atoms won't move (../verlet.cpp:55)
PPPM initialization ...
  using 12-bit tables for long-range coulomb (../kspace.cpp:340)
  G vector (1/distance) = 0.80560326
  grid = 36 36 36
  stencil order = 5
  estimated absolute RMS force accuracy = 7.7980482e-05
  estimated relative force accuracy = 7.7980482e-05
  using single precision KISS FFT
  3d grid and FFT values/proc = 12167 6480
Per MPI rank memory allocation (min/avg/max) = 5.918 | 5.942 | 5.966 Mbytes
Step Temp Atoms Density TotEng PotEng KinEng E_coul E_vdwl E_long Enthalpy Press 
    1000     1.024401     5214     0.754133 982089.349091 974079.043397  8010.305694   -65.981479 974447.493682  -302.468807 4985369.577779   579.019272 
Loop time of 1.7205e-06 on 8 procs for 0 steps with 5214 atoms

run 0 post no # return_position back to old
WARNING: No fixes defined, atoms won't move (../verlet.cpp:55)
PPPM initialization ...
  using 12-bit tables for long-range coulomb (../kspace.cpp:340)
  G vector (1/distance) = 0.80560326
  grid = 36 36 36
  stencil order = 5
  estimated absolute RMS force accuracy = 7.7980482e-05
  estimated relative force accuracy = 7.7980482e-05
  using single precision KISS FFT
  3d grid and FFT values/proc = 12167 6480
Per MPI rank memory allocation (min/avg/max) = 5.918 | 5.942 | 5.966 Mbytes
Step Temp Atoms Density TotEng PotEng KinEng E_coul E_vdwl E_long Enthalpy Press 
    1000     1.006234     5214     0.754133 -15578.307955 -23446.557998  7868.250043   -61.341018 -23085.436481  -299.780499 -7685.112643     1.141642 
Loop time of 1.43375e-06 on 8 procs for 0 steps with 5214 atoms

group widom_test         delete
group noneq_run          delete
group noneq_run_rigid    delete
reset_timestep 600

group   solvent delete
group   water   delete
group   ions    delete
group   wall    delete
group   flying  delete
group   eq_run  delete
        
write_data restart_after_MC_2.data pair ij
System init for write_data ...
PPPM initialization ...
  using 12-bit tables for long-range coulomb (../kspace.cpp:340)
  G vector (1/distance) = 0.80560326
  grid = 36 36 36
  stencil order = 5
  estimated absolute RMS force accuracy = 7.7980482e-05
  estimated relative force accuracy = 7.7980482e-05
  using single precision KISS FFT
  3d grid and FFT values/proc = 12167 6480
log logfile_hneqMDMC.3
