
group   solvent type 1
5024 atoms in group solvent
group   water   empty
0 atoms in group water
group   ions    type 2 3
190 atoms in group ions
group   wall    type 4 5
0 atoms in group wall
group   flying  type 6 7 8
0 atoms in group flying
group   eq_run  union solvent ions flying
5214 atoms in group eq_run
            
######################################################################
pair_style   lj/cut/coul/long 2.500000 3.500000
kspace_style pppm 0.0001

# LJ (neq? False)
# real lj particles
pair_coeff  * *         1.  1.  2.5   # solvent + ions
pair_coeff  4*5 4*5     0   0   2.5   # wall atoms

        
pair_modify  tail no shift yes mix arithmetic # LB mixing rule
neigh_modify delay 2 every 1 check yes page 500000 one 50000
######################################################################
timestep 0.005000
thermo 2000
fix  eqmd   eq_run nvt temp 1.000000 1.000000 0.500000
run 200 # (neq? False) MD run
PPPM initialization ...
  using 12-bit tables for long-range coulomb (../kspace.cpp:340)
  G vector (1/distance) = 0.80560326
  grid = 36 36 36
  stencil order = 5
  estimated absolute RMS force accuracy = 7.7980482e-05
  estimated relative force accuracy = 7.7980482e-05
  using single precision KISS FFT
  3d grid and FFT values/proc = 12167 6480
Per MPI rank memory allocation (min/avg/max) = 5.918 | 5.942 | 5.965 Mbytes
Step Temp Atoms Density TotEng PotEng KinEng E_coul E_vdwl E_long Enthalpy Press 
    1400     1.011069     5214     0.754133 -15610.827326 -23516.883633  7906.056306   -54.532276 -23167.786499  -294.564857 -8284.456499     1.059658 
    1600     0.989456     5214     0.754133 -15863.017969 -23600.071507  7737.053538   -55.917612 -23253.352931  -290.800964 -8931.540357     1.002543 
Loop time of 0.88182 on 8 procs for 200 steps with 5214 atoms

Performance: 97979.208 tau/day, 226.804 timesteps/s
100.1% CPU use with 8 MPI tasks x no OpenMP threads

MPI task timing breakdown:
Section |  min time  |  avg time  |  max time  |%varavg| %total
---------------------------------------------------------------
Pair    | 0.31492    | 0.33697    | 0.39003    |   3.8 | 38.21
Kspace  | 0.41394    | 0.46778    | 0.49163    |   3.2 | 53.05
Neigh   | 0.044068   | 0.047422   | 0.054784   |   1.4 |  5.38
Comm    | 0.017878   | 0.024332   | 0.026416   |   1.6 |  2.76
Output  | 3.0294e-05 | 3.1549e-05 | 3.9104e-05 |   0.0 |  0.00
Modify  | 0.003223   | 0.0035178  | 0.0038032  |   0.3 |  0.40
Other   |            | 0.001759   |            |       |  0.20

Nlocal:        651.750 ave         665 max         636 min
Histogram: 2 0 0 0 0 2 0 3 0 1
Nghost:        3139.62 ave        3160 max        3118 min
Histogram: 1 0 1 1 0 2 1 0 0 2
Neighs:        56026.4 ave       57377 max       53772 min
Histogram: 2 0 0 0 0 0 2 0 2 2

Total # of neighbors = 448211
Ave neighs/atom = 85.962984
Neighbor list builds = 27
Dangerous builds = 0
unfix    eqmd

group   solvent type 1
5024 atoms in group solvent
group   water   empty
0 atoms in group water
group   ions    type 2 3
190 atoms in group ions
group   wall    type 4 5
0 atoms in group wall
group   flying  type 6 7 8
0 atoms in group flying
group   eq_run  union solvent ions flying
5214 atoms in group eq_run
            
######################################################################
pair_style   lj/cut/coul/long 2.500000 3.500000
kspace_style pppm 0.0001

# LJ (neq? False)
# real lj particles
pair_coeff  * *         1.  1.  2.5   # solvent + ions
pair_coeff  4*5 4*5     0   0   2.5   # wall atoms

        
pair_modify  tail no shift yes mix arithmetic # LB mixing rule
neigh_modify delay 2 every 1 check yes page 500000 one 50000
######################################################################
# shake is off; should be a dummy run
timestep 0.005000
thermo 2000
fix  eqmd   eq_run nvt temp 1.000000 1.000000 0.500000
run 0 # (neq? False) MD run
PPPM initialization ...
  using 12-bit tables for long-range coulomb (../kspace.cpp:340)
  G vector (1/distance) = 0.80560326
  grid = 36 36 36
  stencil order = 5
  estimated absolute RMS force accuracy = 7.7980482e-05
  estimated relative force accuracy = 7.7980482e-05
  using single precision KISS FFT
  3d grid and FFT values/proc = 12167 6480
Per MPI rank memory allocation (min/avg/max) = 5.918 | 5.942 | 5.966 Mbytes
Step Temp Atoms Density TotEng PotEng KinEng E_coul E_vdwl E_long Enthalpy Press 
    1600     0.989456     5214     0.754133 -15863.017969 -23600.071506  7737.053538   -55.917612 -23253.352931  -290.800964 -8931.540357     1.002543 
Loop time of 1.82412e-06 on 8 procs for 0 steps with 5214 atoms

41.1% CPU use with 8 MPI tasks x no OpenMP threads

MPI task timing breakdown:
Section |  min time  |  avg time  |  max time  |%varavg| %total
---------------------------------------------------------------
Pair    | 0          | 0          | 0          |   0.0 |  0.00
Kspace  | 0          | 0          | 0          |   0.0 |  0.00
Neigh   | 0          | 0          | 0          |   0.0 |  0.00
Comm    | 0          | 0          | 0          |   0.0 |  0.00
Output  | 0          | 0          | 0          |   0.0 |  0.00
Modify  | 0          | 0          | 0          |   0.0 |  0.00
Other   |            | 1.824e-06  |            |       |100.00

Nlocal:        651.750 ave         665 max         634 min
Histogram: 2 0 0 0 1 0 1 2 0 2
Nghost:        3137.50 ave        3158 max        3112 min
Histogram: 1 1 0 0 1 1 1 1 0 2
Neighs:        56019.0 ave       57802 max       53567 min
Histogram: 2 0 0 0 0 2 0 2 1 1

Total # of neighbors = 448152
Ave neighs/atom = 85.951669
Neighbor list builds = 0
Dangerous builds = 0
unfix    eqmd
create_atoms  6 random  1  2734  NULL units box # not_read
Created 1 atoms
  using box units in orthogonal box = (-9.5252781 -9.5252781 -9.5252781) to (9.5252781 9.5252781 9.5252781)
  create_atoms CPU = 0.000 seconds
run 0 post no # temp=1.000000 unit_lj?=True velocity generated
WARNING: No fixes defined, atoms won't move (../verlet.cpp:55)
PPPM initialization ...
  using 12-bit tables for long-range coulomb (../kspace.cpp:340)
  G vector (1/distance) = 0.80560141
  grid = 36 36 36
  stencil order = 5
  estimated absolute RMS force accuracy = 7.7974151e-05
  estimated relative force accuracy = 7.7974151e-05
  using single precision KISS FFT
  3d grid and FFT values/proc = 12167 6480
Per MPI rank memory allocation (min/avg/max) = 5.918 | 5.942 | 5.966 Mbytes
Step Temp Atoms Density TotEng PotEng KinEng E_coul E_vdwl E_long Enthalpy Press 
    1600     0.989824     5215     0.754278 -4605.369712 -12346.785251  7741.415539   -55.917914 -12000.066676  -290.800662 47834.956956     7.584770 
Loop time of 1.86125e-06 on 8 procs for 0 steps with 5215 atoms

# generated_velocity_lj 5215 lj_solvent vel 2.609077 1.068436 -0.880433
group   widom_test  type    6 # insert lj
1 atoms in group widom_test
set type 6 charge 0.000000
Setting atom values ...
  1 settings made for charge
run 0 post no # insert flying molecule
WARNING: No fixes defined, atoms won't move (../verlet.cpp:55)
PPPM initialization ...
  using 12-bit tables for long-range coulomb (../kspace.cpp:340)
  G vector (1/distance) = 0.80560141
  grid = 36 36 36
  stencil order = 5
  estimated absolute RMS force accuracy = 7.7974151e-05
  estimated relative force accuracy = 7.7974151e-05
  using single precision KISS FFT
  3d grid and FFT values/proc = 12167 6480
Per MPI rank memory allocation (min/avg/max) = 5.918 | 5.942 | 5.966 Mbytes
Step Temp Atoms Density TotEng PotEng KinEng E_coul E_vdwl E_long Enthalpy Press 
    1600     0.989824     5215     0.754278 -4605.369712 -12346.785251  7741.415539   -55.917914 -12000.066676  -290.800662 47834.956956     7.584770 
Loop time of 1.654e-06 on 8 procs for 0 steps with 5215 atoms

group noneq_run_rigid    intersect   all         water               # select_lj no selection
0 atoms in group noneq_run_rigid
group noneq_run          subtract    all         noneq_run_rigid     # select_lj no selection
5215 atoms in group noneq_run
run 0 post no # mom rev random number
WARNING: No fixes defined, atoms won't move (../verlet.cpp:55)
PPPM initialization ...
  using 12-bit tables for long-range coulomb (../kspace.cpp:340)
  G vector (1/distance) = 0.80560141
  grid = 36 36 36
  stencil order = 5
  estimated absolute RMS force accuracy = 7.7974151e-05
  estimated relative force accuracy = 7.7974151e-05
  using single precision KISS FFT
  3d grid and FFT values/proc = 12167 6480
Per MPI rank memory allocation (min/avg/max) = 5.918 | 5.942 | 5.966 Mbytes
Step Temp Atoms Density TotEng PotEng KinEng E_coul E_vdwl E_long Enthalpy Press 
    1600     0.989824     5215     0.754278 -4605.369712 -12346.785251  7741.415539   -55.917914 -12000.066676  -290.800662 47834.956956     7.584770 
Loop time of 1.26888e-06 on 8 procs for 0 steps with 5215 atoms

######################################################################
pair_style   lj/cut/coul/long/neq 2.500000 3.500000 1600 400 1.000000 5 1 0 1.000000 1.000000 11 1.000000
kspace_style pppm 0.0001

# LJ (neq? True)
# real lj particles
pair_coeff  * *         1.  1.  2.5   # solvent + ions
pair_coeff  4*5 4*5     0   0   2.5   # wall atoms

        
pair_modify  tail no shift yes mix arithmetic # LB mixing rule
neigh_modify delay 2 every 1 check yes page 500000 one 50000
######################################################################
timestep 0.010000
fix  eqmd  noneq_run           nve                 # nve for non-rigid
run 400 # (neq? True) MD run
PPPM initialization ...
  using 12-bit tables for long-range coulomb (../kspace.cpp:340)
  G vector (1/distance) = 0.80560141
  grid = 36 36 36
  stencil order = 5
  estimated absolute RMS force accuracy = 7.7974151e-05
  estimated relative force accuracy = 7.7974151e-05
  using single precision KISS FFT
  3d grid and FFT values/proc = 12167 6480
Neighbor list info ...
  update every 1 steps, delay 2 steps, check yes
  max neighbors/atom: 50000, page size: 500000
  master list distance cutoff = 3.8
  ghost atom cutoff = 3.8
  binsize = 1.9, bins = 11 11 11
  1 neighbor lists, perpetual/occasional/extra = 1 0 0
  (1) pair lj/cut/coul/long/neq, perpetual
      attributes: half, newton on
      pair build: half/bin/atomonly/newton
      stencil: half/bin/3d
      bin: standard
Per MPI rank memory allocation (min/avg/max) = 5.918 | 5.942 | 5.966 Mbytes
Step Temp Atoms Density TotEng PotEng KinEng E_coul E_vdwl E_long Enthalpy Press 
    1600     0.989824     5215     0.754278 -15862.844987 -23604.260527  7741.415539   -55.917914 -23257.541951  -290.800662 -8932.669619     1.002354 
    2000     0.983489     5215     0.754278 -15855.642866 -23547.507926  7691.865060   -56.090160 -23202.206658  -289.211108 -8666.331507     1.039835 
Loop time of 1.71635 on 8 procs for 400 steps with 5215 atoms

Performance: 201357.150 tau/day, 233.052 timesteps/s
100.1% CPU use with 8 MPI tasks x no OpenMP threads

MPI task timing breakdown:
Section |  min time  |  avg time  |  max time  |%varavg| %total
---------------------------------------------------------------
Pair    | 0.68334    | 0.70709    | 0.737      |   2.0 | 41.20
Kspace  | 0.7496     | 0.7814     | 0.80721    |   2.1 | 45.53
Neigh   | 0.17613    | 0.17923    | 0.18212    |   0.5 | 10.44
Comm    | 0.040496   | 0.041747   | 0.043663   |   0.5 |  2.43
Output  | 3.4919e-05 | 3.6964e-05 | 4.1811e-05 |   0.0 |  0.00
Modify  | 0.002936   | 0.0030843  | 0.0031886  |   0.1 |  0.18
Other   |            | 0.00376    |            |       |  0.22

Nlocal:        651.875 ave         661 max         643 min
Histogram: 1 1 1 0 0 2 1 0 0 2
Nghost:        3126.50 ave        3135 max        3106 min
Histogram: 1 0 0 0 1 0 1 1 1 3
Neighs:        56045.5 ave       57120 max       54579 min
Histogram: 1 0 0 1 1 2 0 1 0 2

Total # of neighbors = 448364
Ave neighs/atom = 85.975839
Neighbor list builds = 102
Dangerous builds = 0
unfix    eqmd

group   solvent type 1
5024 atoms in group solvent
group   water   empty
0 atoms in group water
group   ions    type 2 3
190 atoms in group ions
group   wall    type 4 5
0 atoms in group wall
group   flying  type 6 7 8
1 atoms in group flying
group   eq_run  union solvent ions flying
5215 atoms in group eq_run
            
######################################################################
pair_style   lj/cut/coul/long 2.500000 3.500000
kspace_style pppm 0.0001

# LJ (neq? False)
# real lj particles
pair_coeff  * *         1.  1.  2.5   # solvent + ions
pair_coeff  4*5 4*5     0   0   2.5   # wall atoms

        
pair_modify  tail no shift yes mix arithmetic # LB mixing rule
neigh_modify delay 2 every 1 check yes page 500000 one 50000
######################################################################
run 0 post no # update forcefield; return to Eq
WARNING: No fixes defined, atoms won't move (../verlet.cpp:55)
PPPM initialization ...
  using 12-bit tables for long-range coulomb (../kspace.cpp:340)
  G vector (1/distance) = 0.80560141
  grid = 36 36 36
  stencil order = 5
  estimated absolute RMS force accuracy = 7.7974151e-05
  estimated relative force accuracy = 7.7974151e-05
  using single precision KISS FFT
  3d grid and FFT values/proc = 12167 6480
Neighbor list info ...
  update every 1 steps, delay 2 steps, check yes
  max neighbors/atom: 50000, page size: 500000
  master list distance cutoff = 3.8
  ghost atom cutoff = 3.8
  binsize = 1.9, bins = 11 11 11
  1 neighbor lists, perpetual/occasional/extra = 1 0 0
  (1) pair lj/cut/coul/long, perpetual
      attributes: half, newton on
      pair build: half/bin/atomonly/newton
      stencil: half/bin/3d
      bin: standard
Per MPI rank memory allocation (min/avg/max) = 5.918 | 5.942 | 5.966 Mbytes
Step Temp Atoms Density TotEng PotEng KinEng E_coul E_vdwl E_long Enthalpy Press 
    2000     0.983489     5215     0.754278 -15855.642865 -23547.507925  7691.865060   -56.090160 -23202.206658  -289.211107 -8666.331506     1.039835 
Loop time of 1.58338e-06 on 8 procs for 0 steps with 5215 atoms

# done post_propagate after NEMD
delete_atoms group widom_test compress no # lj bond yes mol yes # reject_insert
Deleted 1 atoms, new total = 5214
run 0 post no # delete trial-inserted flying molecule
WARNING: No fixes defined, atoms won't move (../verlet.cpp:55)
PPPM initialization ...
  using 12-bit tables for long-range coulomb (../kspace.cpp:340)
  G vector (1/distance) = 0.80560326
  grid = 36 36 36
  stencil order = 5
  estimated absolute RMS force accuracy = 7.7980482e-05
  estimated relative force accuracy = 7.7980482e-05
  using single precision KISS FFT
  3d grid and FFT values/proc = 12167 6480
Per MPI rank memory allocation (min/avg/max) = 5.918 | 5.942 | 5.966 Mbytes
Step Temp Atoms Density TotEng PotEng KinEng E_coul E_vdwl E_long Enthalpy Press 
    2000     0.983579     5214     0.754133 -15846.553983 -23537.653151  7691.099167   -56.089860 -23192.351884  -289.211407 -8648.453914     1.041106 
Loop time of 1.67713e-06 on 8 procs for 0 steps with 5214 atoms

run 0 post no # return_position back to old
WARNING: No fixes defined, atoms won't move (../verlet.cpp:55)
PPPM initialization ...
  using 12-bit tables for long-range coulomb (../kspace.cpp:340)
  G vector (1/distance) = 0.80560326
  grid = 36 36 36
  stencil order = 5
  estimated absolute RMS force accuracy = 7.7980482e-05
  estimated relative force accuracy = 7.7980482e-05
  using single precision KISS FFT
  3d grid and FFT values/proc = 12167 6480
Per MPI rank memory allocation (min/avg/max) = 5.918 | 5.942 | 5.966 Mbytes
Step Temp Atoms Density TotEng PotEng KinEng E_coul E_vdwl E_long Enthalpy Press 
    2000     0.989456     5214     0.754133 -15863.017969 -23600.071506  7737.053538   -55.917612 -23253.352931  -290.800963 -8931.540356     1.002543 
Loop time of 1.55263e-06 on 8 procs for 0 steps with 5214 atoms

group widom_test         delete
group noneq_run          delete
group noneq_run_rigid    delete
reset_timestep 1600

group   solvent delete
group   water   delete
group   ions    delete
group   wall    delete
group   flying  delete
group   eq_run  delete
        
log logfile_hneqMDMC.8
