
group   solvent type 1
5023 atoms in group solvent
group   water   empty
0 atoms in group water
group   ions    type 2 3
190 atoms in group ions
group   wall    type 4 5
0 atoms in group wall
group   flying  type 6 7 8
0 atoms in group flying
group   eq_run  union solvent ions flying
5213 atoms in group eq_run
            
######################################################################
pair_style   lj/cut/coul/long 2.500000 3.500000
kspace_style pppm 0.0001

# LJ (neq? False)
# real lj particles
pair_coeff  * *         1.  1.  2.5   # solvent + ions
pair_coeff  4*5 4*5     0   0   2.5   # wall atoms

        
pair_modify  tail no shift yes mix arithmetic # LB mixing rule
neigh_modify delay 2 every 1 check yes page 500000 one 50000
######################################################################
timestep 0.005000
thermo 2000
fix  eqmd   eq_run nvt temp 1.000000 1.000000 0.500000
run 200 # (neq? False) MD run
PPPM initialization ...
  using 12-bit tables for long-range coulomb (../kspace.cpp:340)
  G vector (1/distance) = 0.8056051
  grid = 36 36 36
  stencil order = 5
  estimated absolute RMS force accuracy = 7.7986815e-05
  estimated relative force accuracy = 7.7986815e-05
  using single precision KISS FFT
  3d grid and FFT values/proc = 12167 6480
Per MPI rank memory allocation (min/avg/max) = 5.918 | 5.942 | 5.966 Mbytes
Step Temp Atoms Density TotEng PotEng KinEng E_coul E_vdwl E_long Enthalpy Press 
    1200     0.994943     5213     0.753989 -15823.400898 -23601.861636  7778.460738   -60.243378 -23242.759083  -298.859175 -9264.787031     0.948613 
    1400     1.002653     5213     0.753989 -15610.383399 -23449.128292  7838.744894   -60.375414 -23087.487548  -301.265331 -7908.760191     1.113934 
Loop time of 0.888012 on 8 procs for 200 steps with 5213 atoms

Performance: 97295.966 tau/day, 225.222 timesteps/s
100.1% CPU use with 8 MPI tasks x no OpenMP threads

MPI task timing breakdown:
Section |  min time  |  avg time  |  max time  |%varavg| %total
---------------------------------------------------------------
Pair    | 0.32299    | 0.34       | 0.38289    |   2.9 | 38.29
Kspace  | 0.42729    | 0.47121    | 0.48812    |   2.6 | 53.06
Neigh   | 0.045546   | 0.047123   | 0.053133   |   1.1 |  5.31
Comm    | 0.019002   | 0.023951   | 0.025598   |   1.3 |  2.70
Output  | 2.9415e-05 | 3.0492e-05 | 3.6734e-05 |   0.0 |  0.00
Modify  | 0.0035446  | 0.0036839  | 0.0038998  |   0.2 |  0.41
Other   |            | 0.002015   |            |       |  0.23

Nlocal:        651.625 ave         657 max         641 min
Histogram: 1 0 0 0 1 1 1 1 0 3
Nghost:        3145.00 ave        3163 max        3133 min
Histogram: 1 0 3 1 0 1 1 0 0 1
Neighs:        55984.8 ave       56941 max       54776 min
Histogram: 1 0 0 1 1 2 0 1 1 1

Total # of neighbors = 447878
Ave neighs/atom = 85.915596
Neighbor list builds = 27
Dangerous builds = 0
unfix    eqmd

group   solvent type 1
5023 atoms in group solvent
group   water   empty
0 atoms in group water
group   ions    type 2 3
190 atoms in group ions
group   wall    type 4 5
0 atoms in group wall
group   flying  type 6 7 8
0 atoms in group flying
group   eq_run  union solvent ions flying
5213 atoms in group eq_run
            
######################################################################
pair_style   lj/cut/coul/long 2.500000 3.500000
kspace_style pppm 0.0001

# LJ (neq? False)
# real lj particles
pair_coeff  * *         1.  1.  2.5   # solvent + ions
pair_coeff  4*5 4*5     0   0   2.5   # wall atoms

        
pair_modify  tail no shift yes mix arithmetic # LB mixing rule
neigh_modify delay 2 every 1 check yes page 500000 one 50000
######################################################################
# shake is off; should be a dummy run
timestep 0.005000
thermo 2000
fix  eqmd   eq_run nvt temp 1.000000 1.000000 0.500000
run 0 # (neq? False) MD run
PPPM initialization ...
  using 12-bit tables for long-range coulomb (../kspace.cpp:340)
  G vector (1/distance) = 0.8056051
  grid = 36 36 36
  stencil order = 5
  estimated absolute RMS force accuracy = 7.7986815e-05
  estimated relative force accuracy = 7.7986815e-05
  using single precision KISS FFT
  3d grid and FFT values/proc = 12167 6480
Per MPI rank memory allocation (min/avg/max) = 5.918 | 5.942 | 5.966 Mbytes
Step Temp Atoms Density TotEng PotEng KinEng E_coul E_vdwl E_long Enthalpy Press 
    1400     1.002653     5213     0.753989 -15610.383399 -23449.128293  7838.744894   -60.375414 -23087.487548  -301.265331 -7908.760191     1.113934 
Loop time of 1.61663e-06 on 8 procs for 0 steps with 5213 atoms

0.0% CPU use with 8 MPI tasks x no OpenMP threads

MPI task timing breakdown:
Section |  min time  |  avg time  |  max time  |%varavg| %total
---------------------------------------------------------------
Pair    | 0          | 0          | 0          |   0.0 |  0.00
Kspace  | 0          | 0          | 0          |   0.0 |  0.00
Neigh   | 0          | 0          | 0          |   0.0 |  0.00
Comm    | 0          | 0          | 0          |   0.0 |  0.00
Output  | 0          | 0          | 0          |   0.0 |  0.00
Modify  | 0          | 0          | 0          |   0.0 |  0.00
Other   |            | 1.617e-06  |            |       |100.00

Nlocal:        651.625 ave         656 max         642 min
Histogram: 1 0 0 0 1 1 0 1 0 4
Nghost:        3144.38 ave        3161 max        3130 min
Histogram: 1 0 2 0 1 2 1 0 0 1
Neighs:        55982.8 ave       56832 max       54867 min
Histogram: 1 0 0 0 1 3 1 0 1 1

Total # of neighbors = 447862
Ave neighs/atom = 85.912526
Neighbor list builds = 0
Dangerous builds = 0
unfix    eqmd
create_atoms  6 random  1  34806  NULL units box # not_read
Created 1 atoms
  using box units in orthogonal box = (-9.5252781 -9.5252781 -9.5252781) to (9.5252781 9.5252781 9.5252781)
  create_atoms CPU = 0.000 seconds
run 0 post no # temp=1.000000 unit_lj?=True velocity generated
WARNING: No fixes defined, atoms won't move (../verlet.cpp:55)
PPPM initialization ...
  using 12-bit tables for long-range coulomb (../kspace.cpp:340)
  G vector (1/distance) = 0.80560326
  grid = 36 36 36
  stencil order = 5
  estimated absolute RMS force accuracy = 7.7980482e-05
  estimated relative force accuracy = 7.7980482e-05
  using single precision KISS FFT
  3d grid and FFT values/proc = 12167 6480
Per MPI rank memory allocation (min/avg/max) = 5.918 | 5.942 | 5.966 Mbytes
Step Temp Atoms Density TotEng PotEng KinEng E_coul E_vdwl E_long Enthalpy Press 
    1400     1.002583     5214     0.754133 96324.827663 88485.128456  7839.699207   -60.375736 88846.769201  -301.265009 553267.094519    66.090397 
Loop time of 1.53425e-06 on 8 procs for 0 steps with 5214 atoms

# generated_velocity_lj 5214 lj_solvent vel -0.469091 -0.417686 1.230495
group   widom_test  type    6 # insert lj
1 atoms in group widom_test
set type 6 charge 0.000000
Setting atom values ...
  1 settings made for charge
run 0 post no # insert flying molecule
WARNING: No fixes defined, atoms won't move (../verlet.cpp:55)
PPPM initialization ...
  using 12-bit tables for long-range coulomb (../kspace.cpp:340)
  G vector (1/distance) = 0.80560326
  grid = 36 36 36
  stencil order = 5
  estimated absolute RMS force accuracy = 7.7980482e-05
  estimated relative force accuracy = 7.7980482e-05
  using single precision KISS FFT
  3d grid and FFT values/proc = 12167 6480
Per MPI rank memory allocation (min/avg/max) = 5.918 | 5.942 | 5.966 Mbytes
Step Temp Atoms Density TotEng PotEng KinEng E_coul E_vdwl E_long Enthalpy Press 
    1400     1.002583     5214     0.754133 96324.827663 88485.128456  7839.699207   -60.375736 88846.769201  -301.265009 553267.094519    66.090397 
Loop time of 1.33062e-06 on 8 procs for 0 steps with 5214 atoms

group noneq_run_rigid    intersect   all         water               # select_lj no selection
0 atoms in group noneq_run_rigid
group noneq_run          subtract    all         noneq_run_rigid     # select_lj no selection
5214 atoms in group noneq_run
run 0 post no # mom rev random number
WARNING: No fixes defined, atoms won't move (../verlet.cpp:55)
PPPM initialization ...
  using 12-bit tables for long-range coulomb (../kspace.cpp:340)
  G vector (1/distance) = 0.80560326
  grid = 36 36 36
  stencil order = 5
  estimated absolute RMS force accuracy = 7.7980482e-05
  estimated relative force accuracy = 7.7980482e-05
  using single precision KISS FFT
  3d grid and FFT values/proc = 12167 6480
Per MPI rank memory allocation (min/avg/max) = 5.918 | 5.942 | 5.966 Mbytes
Step Temp Atoms Density TotEng PotEng KinEng E_coul E_vdwl E_long Enthalpy Press 
    1400     1.002583     5214     0.754133 96324.827663 88485.128456  7839.699207   -60.375736 88846.769201  -301.265009 553267.094519    66.090397 
Loop time of 1.75713e-06 on 8 procs for 0 steps with 5214 atoms

######################################################################
pair_style   lj/cut/coul/long/neq 2.500000 3.500000 1400 400 1.000000 5 1 0 1.000000 1.000000 11 1.000000
kspace_style pppm 0.0001

# LJ (neq? True)
# real lj particles
pair_coeff  * *         1.  1.  2.5   # solvent + ions
pair_coeff  4*5 4*5     0   0   2.5   # wall atoms

        
pair_modify  tail no shift yes mix arithmetic # LB mixing rule
neigh_modify delay 2 every 1 check yes page 500000 one 50000
######################################################################
timestep 0.010000
fix  eqmd  noneq_run           nve                 # nve for non-rigid
run 400 # (neq? True) MD run
PPPM initialization ...
  using 12-bit tables for long-range coulomb (../kspace.cpp:340)
  G vector (1/distance) = 0.80560326
  grid = 36 36 36
  stencil order = 5
  estimated absolute RMS force accuracy = 7.7980482e-05
  estimated relative force accuracy = 7.7980482e-05
  using single precision KISS FFT
  3d grid and FFT values/proc = 12167 6480
Neighbor list info ...
  update every 1 steps, delay 2 steps, check yes
  max neighbors/atom: 50000, page size: 500000
  master list distance cutoff = 3.8
  ghost atom cutoff = 3.8
  binsize = 1.9, bins = 11 11 11
  1 neighbor lists, perpetual/occasional/extra = 1 0 0
  (1) pair lj/cut/coul/long/neq, perpetual
      attributes: half, newton on
      pair build: half/bin/atomonly/newton
      stencil: half/bin/3d
      bin: standard
Per MPI rank memory allocation (min/avg/max) = 5.918 | 5.942 | 5.966 Mbytes
Step Temp Atoms Density TotEng PotEng KinEng E_coul E_vdwl E_long Enthalpy Press 
    1400     1.002583     5214     0.754133 -15614.442879 -23454.142086  7839.699207   -60.375736 -23092.501341  -301.265009 -7916.850050     1.113351 
    1800     1.011069     5214     0.754133 -15610.827326 -23516.883633  7906.056306   -54.532276 -23167.786499  -294.564857 -8284.456499     1.059658 
Loop time of 1.69926 on 8 procs for 400 steps with 5214 atoms

Performance: 203382.843 tau/day, 235.397 timesteps/s
100.1% CPU use with 8 MPI tasks x no OpenMP threads

MPI task timing breakdown:
Section |  min time  |  avg time  |  max time  |%varavg| %total
---------------------------------------------------------------
Pair    | 0.69079    | 0.7053     | 0.71985    |   1.1 | 41.51
Kspace  | 0.75184    | 0.76563    | 0.78215    |   1.1 | 45.06
Neigh   | 0.17629    | 0.17953    | 0.18462    |   0.5 | 10.56
Comm    | 0.040153   | 0.041588   | 0.042642   |   0.4 |  2.45
Output  | 2.9924e-05 | 3.2589e-05 | 3.8167e-05 |   0.0 |  0.00
Modify  | 0.0029783  | 0.003148   | 0.0033933  |   0.3 |  0.19
Other   |            | 0.004029   |            |       |  0.24

Nlocal:        651.750 ave         665 max         632 min
Histogram: 1 0 0 0 1 0 4 0 1 1
Nghost:        3129.50 ave        3144 max        3111 min
Histogram: 1 0 0 2 1 0 0 2 0 2
Neighs:        56023.5 ave       57816 max       53707 min
Histogram: 1 0 0 0 1 4 0 0 1 1

Total # of neighbors = 448188
Ave neighs/atom = 85.958573
Neighbor list builds = 102
Dangerous builds = 0
unfix    eqmd

group   solvent type 1
5023 atoms in group solvent
group   water   empty
0 atoms in group water
group   ions    type 2 3
190 atoms in group ions
group   wall    type 4 5
0 atoms in group wall
group   flying  type 6 7 8
1 atoms in group flying
group   eq_run  union solvent ions flying
5214 atoms in group eq_run
            
######################################################################
pair_style   lj/cut/coul/long 2.500000 3.500000
kspace_style pppm 0.0001

# LJ (neq? False)
# real lj particles
pair_coeff  * *         1.  1.  2.5   # solvent + ions
pair_coeff  4*5 4*5     0   0   2.5   # wall atoms

        
pair_modify  tail no shift yes mix arithmetic # LB mixing rule
neigh_modify delay 2 every 1 check yes page 500000 one 50000
######################################################################
run 0 post no # update forcefield; return to Eq
WARNING: No fixes defined, atoms won't move (../verlet.cpp:55)
PPPM initialization ...
  using 12-bit tables for long-range coulomb (../kspace.cpp:340)
  G vector (1/distance) = 0.80560326
  grid = 36 36 36
  stencil order = 5
  estimated absolute RMS force accuracy = 7.7980482e-05
  estimated relative force accuracy = 7.7980482e-05
  using single precision KISS FFT
  3d grid and FFT values/proc = 12167 6480
Neighbor list info ...
  update every 1 steps, delay 2 steps, check yes
  max neighbors/atom: 50000, page size: 500000
  master list distance cutoff = 3.8
  ghost atom cutoff = 3.8
  binsize = 1.9, bins = 11 11 11
  1 neighbor lists, perpetual/occasional/extra = 1 0 0
  (1) pair lj/cut/coul/long, perpetual
      attributes: half, newton on
      pair build: half/bin/atomonly/newton
      stencil: half/bin/3d
      bin: standard
Per MPI rank memory allocation (min/avg/max) = 5.918 | 5.942 | 5.965 Mbytes
Step Temp Atoms Density TotEng PotEng KinEng E_coul E_vdwl E_long Enthalpy Press 
    1800     1.011069     5214     0.754133 -15610.827326 -23516.883633  7906.056306   -54.532276 -23167.786499  -294.564857 -8284.456499     1.059658 
Loop time of 1.2895e-06 on 8 procs for 0 steps with 5214 atoms

# done post_propagate after NEMD
set type 6 type 1
Setting atom values ...
  1 settings made for type
run 0 post no # lj type change (accept_insert)
WARNING: No fixes defined, atoms won't move (../verlet.cpp:55)
PPPM initialization ...
  using 12-bit tables for long-range coulomb (../kspace.cpp:340)
  G vector (1/distance) = 0.80560326
  grid = 36 36 36
  stencil order = 5
  estimated absolute RMS force accuracy = 7.7980482e-05
  estimated relative force accuracy = 7.7980482e-05
  using single precision KISS FFT
  3d grid and FFT values/proc = 12167 6480
Per MPI rank memory allocation (min/avg/max) = 5.918 | 5.942 | 5.965 Mbytes
Step Temp Atoms Density TotEng PotEng KinEng E_coul E_vdwl E_long Enthalpy Press 
    1800     1.011069     5214     0.754133 -15610.827326 -23516.883633  7906.056306   -54.532276 -23167.786499  -294.564857 -8284.456499     1.059658 
Loop time of 1.707e-06 on 8 procs for 0 steps with 5214 atoms

reset_atom_ids sort yes # id numbering
Resetting atom IDs ...
PPPM initialization ...
  using 12-bit tables for long-range coulomb (../kspace.cpp:340)
  G vector (1/distance) = 0.80560326
  grid = 36 36 36
  stencil order = 5
  estimated absolute RMS force accuracy = 7.7980482e-05
  estimated relative force accuracy = 7.7980482e-05
  using single precision KISS FFT
  3d grid and FFT values/proc = 12167 6480
run 0 post no # just for ids re-setting
WARNING: No fixes defined, atoms won't move (../verlet.cpp:55)
PPPM initialization ...
  using 12-bit tables for long-range coulomb (../kspace.cpp:340)
  G vector (1/distance) = 0.80560326
  grid = 36 36 36
  stencil order = 5
  estimated absolute RMS force accuracy = 7.7980482e-05
  estimated relative force accuracy = 7.7980482e-05
  using single precision KISS FFT
  3d grid and FFT values/proc = 12167 6480
Per MPI rank memory allocation (min/avg/max) = 5.918 | 5.942 | 5.965 Mbytes
Step Temp Atoms Density TotEng PotEng KinEng E_coul E_vdwl E_long Enthalpy Press 
    1800     1.011069     5214     0.754133 -15610.827326 -23516.883633  7906.056306   -54.532276 -23167.786499  -294.564857 -8284.456499     1.059658 
Loop time of 1.4525e-06 on 8 procs for 0 steps with 5214 atoms

WARNING: lammps_gather_atoms: unknown property name (../library.cpp:2111)
# updating atom list by mol_id 0
# this is a pure atomic-system atom_id (0)
# done updating numbering after accepted exchange
group widom_test         delete
group noneq_run          delete
group noneq_run_rigid    delete
reset_timestep 1400

group   solvent delete
group   water   delete
group   ions    delete
group   wall    delete
group   flying  delete
group   eq_run  delete
        
write_data restart_after_MC_6.data pair ij
System init for write_data ...
PPPM initialization ...
  using 12-bit tables for long-range coulomb (../kspace.cpp:340)
  G vector (1/distance) = 0.80560326
  grid = 36 36 36
  stencil order = 5
  estimated absolute RMS force accuracy = 7.7980482e-05
  estimated relative force accuracy = 7.7980482e-05
  using single precision KISS FFT
  3d grid and FFT values/proc = 12167 6480
log logfile_hneqMDMC.7
