LAMMPS data file via write_data, version 28 Oct 2021, timestep = 1400

5214 atoms
8 atom types

-9.525278051358015 9.525278051358015 xlo xhi
-9.525278051358015 9.525278051358015 ylo yhi
-9.525278051358015 9.525278051358015 zlo zhi

Masses

1 1
2 1
3 1
4 1
5 1
6 1
7 1
8 1

PairIJ Coeffs # lj/cut/coul/long

1 1 1 1 2.5
1 2 1 1 2.5
1 3 1 1 2.5
1 4 1 1 2.5
1 5 1 1 2.5
1 6 1 1 2.5
1 7 1 1 2.5
1 8 1 1 2.5
2 2 1 1 2.5
2 3 1 1 2.5
2 4 1 1 2.5
2 5 1 1 2.5
2 6 1 1 2.5
2 7 1 1 2.5
2 8 1 1 2.5
3 3 1 1 2.5
3 4 1 1 2.5
3 5 1 1 2.5
3 6 1 1 2.5
3 7 1 1 2.5
3 8 1 1 2.5
4 4 0 0 2.5
4 5 0 0 2.5
4 6 1 1 2.5
4 7 1 1 2.5
4 8 1 1 2.5
5 5 0 0 2.5
5 6 1 1 2.5
5 7 1 1 2.5
5 8 1 1 2.5
6 6 1 1 2.5
6 7 1 1 2.5
6 8 1 1 2.5
7 7 1 1 2.5
7 8 1 1 2.5
8 8 1 1 2.5

Atoms # charge

3 1 0 -8.12322639926367 -8.568625619065937 -9.006514872533595 16 -2 -23
5 1 0 -7.680896934793693 -8.97916848897506 -8.05870221543444 23 -19 -35
4 1 0 -8.043806952936885 -7.923981405036873 -7.994832418360371 8 -2 -10
1 1 0 -9.33024457530434 -8.410903666270567 -8.187092924162616 0 -1 -5
8 1 0 -6.791704752785213 -8.831691671191917 -9.064170900941885 10 -47 -49
10 1 0 -6.015834882814509 -7.852805245806398 -8.470895400286798 -8 -33 -47
7 1 0 -6.883868712396527 -8.072313746231252 -7.94383545901606 7 -64 -70
12 1 0 -5.736463746825374 -8.562569412889362 -9.172553793910671 0 2 0
9 1 0 -6.395095369022184 -9.013608414022912 -8.085394621199358 0 -29 -31
6 1 0 -7.508596722093724 -8.032288398804685 -9.519294004869376 -1 -26 -43
14 1 0 -5.035576182315624 -8.022113872287425 -8.100435716278053 -17 -26 -26
16 1 0 -4.6575091481950155 -7.738015934274204 -8.920857085651157 12 -16 -32
17 1 0 -4.049217556217061 -8.598905724505572 -8.088247747702741 12 -9 -14
15 1 0 -4.9634588150301155 -9.333407289236403 -9.006664781676017 -9 -2 -36
13 1 0 -5.291377581310538 -8.980746705402476 -7.922956514507697 6 -5 -11
19 1 0 -3.1789417655166905 -9.354288673902342 -8.468685805199096 -1 -8 -50
21 1 0 -2.908521677145645 -8.473868215593528 -8.752904176042394 4 -3 -8
24 1 0 -1.9253193732924132 -8.946404897222118 -8.590896600241672 -5 -21 -27
22 1 0 -2.701788463622535 -9.084576593787565 -9.430458730408656 1 -95 -65
20 1 0 -3.126791770822392 -7.820819525618418 -7.71993302214499 -110 -68 -67
23 1 0 -2.002027370018391 -7.760031876452218 -8.625549494672562 0 1 0
18 1 0 -3.559756645889918 -8.55603118946413 -9.476397451958185 10 -35 -34
25 1 0 -1.4052046781620828 -7.882617045415833 -7.678257106920661 0 0 1
28 1 0 -0.6842904019030973 -8.422709629043181 -8.569226439894676 -10 -25 -42
31 1 0 -0.41160635903569726 -7.7957239340548385 -9.498704577715674 -83 -59 -20
26 1 0 -1.3816299347162757 -8.337398024750705 -9.276356237897986 17 -5 -25
32 1 0 -0.28170937473961677 -9.495292783276586 -8.177796565208874 0 2 1
27 1 0 -1.0979769086999531 -8.911002360582243 -7.6519320757576885 -3 -21 -34
29 1 0 -0.5391891348238694 -9.320551299364643 -9.181449745770403 20 -12 -11
69 1 0 -7.759334047727787 -6.071904243403777 -8.269148003587787 -14 -18 -37
68 1 0 -8.263047437645042 -7.026891705337453 -7.988987051487164 0 3 1
66 1 0 -8.936790269796328 -7.03133502200453 -9.074947741503832 15 -11 -31
67 1 0 -8.49986849821943 -5.832566689143289 -7.634240200985159 -16 -26 -19
65 1 0 -9.232715372850244 -7.301722496400823 -8.02074121127805 -10 -13 -21
71 1 0 -7.49840311384242 -7.03634556359731 -8.953221888527253 16 -8 -10
73 1 0 -6.6186218538750206 -7.060305803915165 -8.39950776006644 22 -11 -22
74 1 0 -6.363875375801566 -5.758060893453141 -9.317447100985298 -68 -104 -20
75 1 0 -5.807612297579752 -5.76430851571902 -8.40643213158785 9 -1 -17
76 1 0 -5.583859582850098 -7.007457478988995 -9.042065320850549 0 -18 -51
82 1 0 -4.230947542771474 -7.136513686910203 -8.027190058357473 -19 -31 -35
77 1 0 -5.492395330037531 -6.722196430911375 -7.970112797808332 -5 -29 -43
80 1 0 -4.64995330587531 -6.324769486855924 -8.58785837113862 -9 -27 -38
83 1 0 -3.935167824078127 -5.982109373715914 -9.393470701366343 -20 -40 -37
79 1 0 -4.6530280705567115 -6.775978335941748 -9.470691715761273 8 -4 -5
88 1 0 -2.600796747400248 -6.031325143835453 -8.624217606716705 6 -31 -32
85 1 0 -3.6093201117997062 -6.932973950340064 -8.844494757791509 14 -13 -27
89 1 0 -2.359817548469188 -6.970964685818682 -7.993315740874974 -1 -12 -45
86 1 0 -3.461056714802257 -6.417701829834323 -7.80032972632186 9 -10 -26
87 1 0 -2.619493136497031 -6.670203560887081 -9.473895932624792 21 -27 -32
94 1 0 -0.7963821301716301 -5.937033442439334 -9.243674093067773 7 -85 -66
93 1 0 -0.9357802185009236 -7.0001816980878315 -9.445605382899148 2 -6 -37
92 1 0 -1.261110141326103 -6.720723657358178 -8.167359147902639 -13 -18 -25
91 1 0 -1.58423125051285 -5.7209980410531465 -8.243916491554314 -17 -23 -32
95 1 0 -0.4745884029873049 -6.1481924798799374 -7.96004712740645 -127 -76 -49
30 1 0 -0.4430375960201674 -7.477319026724939 -8.291988759054478 0 4 -2
96 1 0 -0.2118200671223085 -6.618888547946082 -8.747909566782432 2 -4 -3
132 1 0 -8.203117383649527 -5.039630272857563 -8.442576962874066 1 1 -3
133 1 0 -8.119597396489317 -4.410767981055315 -9.154321562448407 5 -4 -7
70 1 0 -7.667229483844473 -5.437354400371805 -9.324102403106076 13 -16 -45
134 1 0 -7.681706122711351 -3.989248175073438 -8.251901797792442 -19 -23 -38
128 1 0 -9.059374667645905 -4.379390112294213 -8.654267140866999 14 -6 -14
64 1 0 -9.35022807573179 -5.564957982436057 -8.856033978464064 24 -14 -36
135 1 0 -7.1849980644629845 -5.136003193045779 -8.17390666229255 11 -2 -9
139 1 0 -6.224773033412955 -4.907782833916689 -7.708173399980079 -8 -17 -32
138 1 0 -6.474550335786781 -4.0421415150882085 -8.243558073379948 -2 -29 -46
140 1 0 -5.8488405037347775 -4.716456639752483 -9.249355060121887 5 0 -5
78 2 1 -5.010960219736831 -5.478956019365939 -9.074839577236089 1 2 -4
144 1 0 -4.37767961928353 -4.620085221345383 -8.90167384119803 13 -13 -30
141 1 0 -5.237753285220598 -3.944222621891088 -8.561774825830161 -17 -23 -22
142 1 0 -5.08033277099902 -5.041341046793161 -8.022693158322861 13 -16 -50
84 1 0 -3.8786627848659845 -5.5272613148146155 -8.36279480878631 -16 -20 -47
150 1 0 -2.394935424037796 -4.446569947297274 -9.238575546278222 15 -13 -34
149 1 0 -2.555022284888213 -5.0129936732107545 -8.156800365026346 3 -14 -23
147 1 0 -3.2838601965250414 -5.169389857284826 -9.168214499009338 -18 -29 -36
148 1 0 -2.8473645233471303 -4.083966888482245 -8.32972714329168 9 -40 -23
154 1 0 -1.5247213230200092 -4.426916269938132 -8.634514848709264 1 1 1
156 1 0 -0.7113859132219622 -5.176241815431224 -8.60189750150132 18 -23 -40
90 1 0 -1.7436065411047728 -5.353362249841713 -9.279559659151436 -8 -5 -28
158 1 0 -0.4031041567039144 -4.1698898259244315 -8.33060842338349 2 -8 -39
196 1 0 -8.279952302712879 -2.8445200822739545 -9.058404506206756 1 -74 -51
194 2 1 -8.615585607721956 -1.9669984310349578 -8.219849901514674 14 -4 -14
198 1 0 -7.644155222879875 -2.378681786481824 -7.722307182739796 -105 -69 -44
130 1 0 -8.758129123117707 -3.440408978496375 -8.202760247795052 16 -29 -43
129 1 0 -9.01005493760999 -3.7238909483736484 -9.383788002685556 -97 -91 -10
200 1 0 -7.428509163474143 -2.2691597220444257 -8.704938197426786 -88 -34 -42
137 1 0 -6.974836190974995 -3.326295313546012 -7.64001897807625 -1 2 1
202 1 0 -6.546704947413535 -2.3087676021225922 -7.793461079294333 3 2 -3
204 1 0 -6.330796270470274 -2.959604002715566 -8.599588742099783 11 -35 -33
203 1 0 -6.443925125401518 -2.0739615386206993 -9.523001090315523 7 -5 -7
136 1 0 -7.181475825449927 -3.315182026823152 -8.987074790610539 -8 -8 -31
208 1 0 -5.225143187817178 -2.890749337568999 -8.899444362370728 15 -7 -20
145 1 0 -3.84522852135922 -3.3553012419104755 -9.261612867973229 1 2 0
206 1 0 -5.671600121183413 -2.075837988222544 -8.5486976771762 4 -2 -7
210 1 0 -4.584470298833883 -1.9867452349667476 -8.667736030397904 10 -8 -11
207 1 0 -5.620840312979821 -2.9182869440643304 -7.746268389265687 -1 2 -2
211 1 0 -4.562028396814746 -3.1605387387156507 -8.15880912064215 -17 -36 -50
215 1 0 -2.955109707294097 -3.0013996146451136 -9.381422611469311 6 -24 -22
213 1 0 -3.4032769817873683 -2.4264004298622472 -8.768484478180694 18 -14 -26
216 1 0 -2.6618576456619967 -2.5846108431276034 -8.085324313218557 7 -23 -25
152 1 0 -2.1336719477339066 -3.478393291053454 -8.90678047409943 1 -6 -10
212 1 0 -3.7562402705400575 -2.489992381769423 -7.675801937287358 13 -7 -24
146 1 0 -3.632056907903761 -3.5228000559635277 -7.88639521346841 -97 -100 -32
219 1 0 -2.0608402706281326 -2.2178837587789295 -9.355687567956195 4 1 -7
221 1 0 -1.4782274632447279 -2.96569901650852 -8.007715383794567 0 1 -1
220 1 0 -1.6207110135557952 -1.9614430079910272 -8.479036744232909 0 3 0
225 1 0 -0.4204980143002952 -2.4013122491659664 -8.436232516761173 -11 -19 -37
155 1 0 -0.9966522240378628 -3.3489673028567815 -9.040617688780873 11 0 -14
224 1 0 -0.8309140953180725 -2.1167736327278814 -9.423408418515589 -3 -19 -32
192 1 0 -9.406243788298537 -1.2370058532116104 -7.78302341291917 1 2 1
264 1 0 -8.494960914536076 -0.8837033988276727 -8.278125980630257 16 -9 -40
197 1 0 -8.180943901586838 -1.5793801288754143 -9.218068980892301 13 -22 -25
193 1 0 -9.139583191850427 -1.7749133046391428 -9.319764937091339 -79 -70 -12
263 1 0 -8.49656694722324 -0.2188083274930702 -9.490460383630818 7 1 -5
271 1 0 -6.531920913684416 -0.4892345401996663 -8.46578962418754 7 -41 -38
199 1 0 -7.511700617647513 -1.2376612780571652 -7.936424853551965 12 -6 -13
205 1 0 -5.882252057949082 -1.171763159900058 -7.914930393471215 -2 2 -1
201 1 0 -6.6074189262970995 -1.5227701683104693 -8.650972992523988 -30 -33 -41
267 1 0 -7.488924524495403 -0.9089275192320767 -8.87126631512053 20 -15 -33
274 1 0 -5.566624314215822 -0.9897830057365076 -8.97005767433656 5 4 -4
275 1 0 -4.987110158074638 -0.03953644353911555 -9.197745789633874 13 -29 -34
277 1 0 -4.662460098976682 -0.7213186518926145 -8.150917360901122 0 3 -2
278 1 0 -4.102589997815215 -1.0256014879148367 -9.057697294264395 -10 -20 -38
218 1 0 -2.2572802484967154 -1.6201719535203398 -7.7777628254750555 -11 -13 -40
284 1 0 -3.028084116400756 -0.46508822004127326 -9.007683717725769 3 -1 -9
217 1 0 -2.3239133516854134 -1.1577654790764877 -8.686539838443279 -2 -16 -26
282 1 0 -3.3552537328975216 -0.7434718097443181 -8.130788188157688 5 -2 -8
214 1 0 -3.118109652056882 -1.4851089013957741 -9.21986421319803 -14 -12 -35
223 1 0 -1.0459705756404418 -1.0649344138567063 -8.39725036255347 9 -5 -19
291 1 0 -0.542049579446331 -0.012775830869424989 -9.337771575165323 16 -13 -19
288 1 0 -1.681161639643491 -0.25471681153329034 -8.116342187959157 -15 -17 -36
293 1 0 -0.006647305717978993 -1.0616002561870046 -8.071569970633908 -1 5 -4
222 1 0 -1.3015118234682606 -1.193820794779277 -9.468754482245444 1 2 1
226 1 0 -0.18515717636314863 -1.199986249025793 -9.443553739080638 15 -10 -36
598 1 0 -7.909614640038209 -8.497642994035624 -7.169888027205078 8 -27 -47
597 1 0 -8.017405747848866 -8.7480966487868 -5.722117141932944 -1 -2 -5
595 1 0 -8.892489935923331 -8.035138836952264 -7.317238303571516 4 -22 -41
596 1 0 -8.599615175090475 -9.112517472115965 -6.478960646752865 -6 -24 -37
2 1 0 -8.877840386526284 -9.115504126172016 -7.530950657079615 18 -15 -31
601 1 0 -6.941408477365877 -8.059823668411397 -6.13673946740128 11 -8 -13
602 1 0 -6.860808489093988 -9.097602710260533 -7.1925586810095785 -16 -17 -35
11 1 0 -5.902668263940653 -8.257304927640114 -7.517239365438146 17 -10 -30
604 1 0 -5.75828124230701 -8.956289301818147 -6.730047520109921 -1 -17 -28
607 1 0 -4.633800725726415 -8.53064783914543 -7.122722752073386 0 2 -2
605 1 0 -5.662016403606667 -7.85758857000367 -6.503231757387543 -14 -55 -59
608 1 0 -4.263715109935345 -7.956483716946035 -6.329447448599818 -18 -19 -23
606 1 0 -4.970489748956284 -8.455566874031872 -5.889410034961872 -88 -60 -40
609 1 0 -4.076520765243882 -9.002137074549498 -6.310496545816454 8 -2 -9
610 1 0 -3.4865475968009596 -9.214198995421105 -7.1563332081860995 3 -3 -4
617 1 0 -2.222781508556983 -7.830303909342191 -6.997142829018369 -7 -22 -35
615 1 0 -2.5527931425058266 -8.819855926427248 -7.200926787820129 12 -18 -27
613 2 1 -3.353381659001098 -8.202833402192788 -6.7416851900985675 -1 3 1
616 1 0 -2.49963066155727 -7.847096841378722 -5.8298868043620296 23 -10 -18
614 1 0 -2.9215561944041246 -9.03538218323411 -6.265266149814818 17 -14 -32
625 1 0 -0.205471993877552 -8.052692827224975 -7.277067191803519 -6 -18 -43
621 1 0 -0.9787191069762008 -7.672779329109193 -6.636216303630995 1 2 0
619 1 0 -1.6825522877677346 -8.4518969490909 -6.398834246544081 -107 -69 -30
623 1 0 -0.541141990888248 -8.724799745817222 -6.3226621941423025 5 0 -5
599 1 0 -7.81333226970005 -7.513750535376809 -7.033626182904349 -105 -60 -22
664 1 0 -8.22409680327122 -7.379200924370688 -6.084312467277508 -5 -28 -44
665 1 0 -8.209849694724177 -6.5428142315554805 -6.818950774876413 10 -9 -9
592 1 0 -9.297513328910588 -7.601438268100891 -6.488039871222971 -12 -14 -30
662 1 0 -9.286594103363381 -6.473076597397212 -6.9348705405886015 -5 -33 -42
663 1 0 -8.785448949841346 -5.835718624717261 -6.0508720874128565 1 1 0
72 1 0 -7.123824479114583 -6.694617670802399 -7.58504609643324 -2 1 1
669 1 0 -6.676063166522518 -5.801735334909004 -7.036371456749756 -114 -88 -57
667 1 0 -7.36835538119995 -6.506100033211455 -6.227758214799444 2 3 0
670 1 0 -6.656417353285496 -7.326814606133868 -6.861146902568442 23 -12 -31
671 1 0 -6.305819898870437 -5.998091671429436 -6.020316999735068 -10 -9 -39
672 3 -1 -5.807242642672088 -6.661619670442519 -7.067455417044303 1 0 -2
680 1 0 -3.842433956167463 -7.385577260859136 -7.071741715083503 14 -1 -19
679 1 0 -3.8781485521713477 -5.930311235156925 -6.95363719705956 -14 -36 -43
675 1 0 -4.947570462988291 -7.323602046605409 -7.298655035073112 7 -4 -9
678 1 0 -4.38210206943716 -6.80742706744123 -6.346882396757217 11 -69 -67
676 1 0 -4.889264486111744 -5.839877046489581 -6.4927037608935585 -61 -86 -42
81 1 0 -4.552863257613275 -6.114388047441135 -7.565056771867252 -1 5 -1
685 1 0 -2.1723818574909846 -6.482854456703545 -6.17473356796637 1 2 -6
683 1 0 -2.8551605292712567 -6.8675686164498355 -7.03212368405051 -7 -1 -38
682 1 0 -3.25259152804136 -5.7201663793444935 -5.934492102207026 19 -13 -31
684 1 0 -2.5849023210517506 -5.788154648191719 -7.258177497517665 4 -17 -36
681 1 0 -3.2616599280983274 -6.692471529536601 -6.083366627603361 3 -19 -35
687 1 0 -1.7026870158870502 -6.851347165563847 -7.173934092911806 -82 -42 -34
688 1 0 -1.4096548954819401 -5.799980117017353 -7.171533641763016 -1 -1 -35
692 1 0 -0.37321011432424817 -5.771077383263847 -6.841971078233064 1 4 -5
689 1 0 -1.1838255442629457 -6.548915411939861 -6.175723181025843 0 4 1
691 1 0 -0.5604195249244767 -6.834853387926838 -7.208242908144199 34 -70 -57
693 1 0 -0.03539937206453191 -6.6076046343745025 -6.252357652629123 -1 1 1
131 1 0 -8.43399683253929 -4.454045533187208 -7.471583061248368 12 -30 -26
666 1 0 -7.675839953198459 -5.599488732919068 -7.204066026996024 1 -1 -6
726 1 0 -8.931545366506713 -3.913220531093544 -6.617072345165415 14 -4 -16
729 1 0 -8.289604144410106 -4.723436270822482 -6.141051177468052 -12 -15 -41
727 1 0 -8.931113587345811 -5.186970803620283 -6.790252114315413 22 -9 -26
127 1 0 -9.508444221590993 -4.334629661753397 -7.610023490403166 18 -12 -30
738 1 0 -5.779557644811736 -3.9909536803317875 -7.396388503684034 17 -65 -71
733 1 0 -7.202738646270105 -4.621037672101557 -7.190184864889498 13 -5 -23
737 1 0 -5.893380664213843 -4.887197062296121 -6.51202729829184 12 -8 -17
735 1 0 -6.876348747978219 -3.8149295367210123 -6.470324739853285 -27 -40 -34
734 1 0 -6.98876314217518 -5.187059781182907 -6.296547935415727 1 5 0
673 1 0 -5.57012176914778 -5.545093282022075 -7.250120571650482 4 -32 -54
143 1 0 -4.5607446123493 -4.204719873354668 -7.584600963650368 27 -58 -62
741 1 0 -5.443851143133812 -3.931195674569362 -6.216669506694427 -7 -18 -36
743 1 0 -4.7058183339526405 -4.970346553738325 -7.00073208960361 7 -15 -38
745 1 0 -4.153183082666065 -3.983041888502681 -6.461819492700029 14 -10 -24
744 3 -1 -4.667096532002134 -4.944061040139603 -5.980415110185952 13 -12 -20
750 1 0 -2.3747239113221603 -4.990781830744932 -6.653743110634508 1 4 1
748 1 0 -3.208003515806505 -3.8114477690343356 -6.975149891487153 4 -26 -27
746 1 0 -3.4974530628031286 -4.780892231380293 -7.281732178880087 21 -13 -40
747 1 0 -3.250440128579229 -4.651525596249295 -6.079627397158085 -24 -33 -47
157 1 0 -0.6484990277097745 -4.665023346330545 -7.4089426686839435 12 -18 -32
153 1 0 -1.6690356923535061 -4.71575415265935 -7.572095239492767 17 -8 -13
690 1 0 -1.1310725737361105 -5.7142372709615525 -5.772475232631554 10 -28 -17
755 1 0 -0.8851995712535399 -4.774768066066799 -6.262310123982368 -1 2 -7
752 1 0 -1.6641367060354355 -4.186552612448574 -6.684887501572566 18 -5 -34
195 1 0 -8.598127171030308 -2.6759426114169895 -7.474166131356825 -80 -35 -44
730 1 0 -7.915444245684756 -3.494771966597287 -7.109896568195593 22 -5 -15
731 1 0 -7.815292904109489 -3.561262937825846 -5.94181103817264 11 -18 -35
794 1 0 -8.06782514609573 -2.525593874969228 -6.471849675130174 -1 2 -7
191 1 0 -9.434169796461257 -2.2320054550745865 -7.438942778928987 11 -17 -34
799 1 0 -6.150594487048585 -3.100553773092984 -6.913695750744659 -5 -26 -20
795 1 0 -7.11889915377246 -2.2109623235107647 -6.9239083791575915 -12 -32 -37
797 1 0 -6.416242508067271 -2.5190777880850885 -5.98867036646432 16 -13 -31
209 1 0 -4.858841493589196 -2.051398406783419 -7.5647002490486335 15 -3 -8
801 1 0 -5.3736113115511595 -2.385891033587848 -6.35536202677734 -92 -79 -33
803 1 0 -4.509115399581268 -3.0657573479315836 -7.031939900774106 2 3 -2
806 1 0 -3.9080085311798656 -2.24753118929249 -6.6566584948337 4 0 -11
151 1 0 -2.2746331703399125 -3.7758389338989704 -7.575766328336605 -21 -15 -45
810 1 0 -2.914980794403557 -2.7607209222634426 -7.06356608666639 1 2 -2
749 1 0 -2.5375990060145006 -3.3560455530834696 -6.458852925751311 5 0 -8
809 1 0 -3.0658985048523775 -1.958253432572438 -6.095240237366611 -2 -80 -63
807 1 0 -3.4942003508080313 -2.9688742237828465 -5.978258557919636 2 -9 -35
814 1 0 -1.8631113805430044 -2.5043021757936117 -7.031311557409748 1 3 -2
756 1 0 -0.6754164435192781 -3.6520020200596397 -6.442635615921276 11 -28 -39
820 1 0 -0.1725890875621744 -3.118472075056496 -5.7320951724132785 5 1 -8
753 1 0 -1.6206349311490034 -3.1882125351769464 -6.123589640759461 18 -15 -19
817 1 0 -0.9133363913365659 -2.5124974758276655 -6.440429701779036 4 -16 -43
757 1 0 -0.34043771318369553 -3.222130024368731 -7.352671687047895 -21 -72 -67
791 1 0 -9.165550805909653 -1.894975803925556 -5.755251123043232 12 -6 -29
860 1 0 -8.284766569893863 -0.5182071950462821 -7.301727086726955 14 -11 -18
792 1 0 -8.219782819066214 -1.651133150243606 -7.16028151633359 -8 -62 -69
862 1 0 -7.653992970067207 -0.190506711649555 -6.469913127221216 -3 -19 -34
789 1 0 -9.284359271737275 -1.4008804690754613 -6.654984791256457 17 -37 -32
793 1 0 -8.13587784671121 -1.610072909376761 -5.811160428608524 -2 2 -3
858 1 0 -8.93219108660204 -0.14430551598080205 -6.528938632629916 -78 -71 -52
798 1 0 -6.237817294075444 -1.8069849759855867 -6.893420486567153 12 -4 -18
268 1 0 -7.328775777750586 -0.24884560921825097 -7.47633173741142 -2 -5 -32
867 1 0 -6.123785932591754 -0.14927741561613253 -7.1516371486769605 0 1 -4
796 1 0 -7.109276613669817 -1.2113010724463469 -6.375092139046567 15 -16 -40
874 1 0 -4.057879714443622 -0.9327499605564772 -7.3403455498146535 9 -5 -8
870 1 0 -5.192569339346818 -1.0521238126034609 -7.008452925716035 -22 -12 -38
873 1 0 -4.2342364009128675 -0.1660180458918127 -5.762918926960155 -110 -52 -72
804 1 0 -4.4331884358278915 -1.4229786137933895 -6.302680666098406 11 -25 -24
871 1 0 -4.9785735538875135 -0.07176142086215119 -7.314322153817552 7 -38 -32
808 1 0 -3.1398414890129187 -1.670849370915669 -7.271302154302492 -126 -97 -35
286 1 0 -2.4330543920080645 -0.6138654306457781 -7.602180246439524 20 -13 -25
880 1 0 -2.3597155027515893 -0.0889463464034961 -6.575567965742689 1 -14 -35
878 1 0 -3.323147216084573 -0.9288071482971145 -6.4777833015230994 -2 -24 -41
812 1 0 -2.3272205335309573 -1.506582595010204 -6.5052072889925405 -1 -19 -34
818 1 0 -0.8398885127774982 -1.7933901344406717 -7.3123219454389385 0 -1 0
886 1 0 -1.4934387560894775 -1.003392147535088 -7.099587367708368 -9 -9 -20
815 1 0 -1.3903262642463536 -1.1257418424961487 -6.105488953285164 15 -11 -30
890 1 0 -0.1981943293256671 -0.8159743192149712 -6.3738634543572825 18 -34 -37
887 1 0 -1.1943967076847553 -0.15222711450745008 -6.44649780929827 6 -2 -8
819 1 0 -0.18976812679522817 -1.8541208454959461 -5.854719221836563 9 -4 -9
1184 1 0 -8.424879201882165 -8.667740466382359 -4.510967377009744 7 0 -5
594 1 0 -9.005999042714226 -8.430174089698635 -5.664504103872268 1 3 1
1190 1 0 -6.30617857454749 -8.830209760993236 -4.503034595357324 9 -83 -69
600 1 0 -7.045208748957094 -9.212818191897373 -5.66176615131702 -3 -23 -49
1186 1 0 -7.345154191481803 -8.432939835755022 -4.233271098681601 0 2 -3
1187 1 0 -6.9823483838567215 -9.359767043444082 -3.8615829318328085 1 2 0
1188 1 0 -6.630933856783641 -7.957977642867261 -5.027843682927898 11 2 -36
1196 1 0 -4.372067838347196 -7.800825488356784 -4.735933998256893 -9 -89 -61
1194 1 0 -4.833980989492866 -8.634943424298061 -4.138220968271623 8 -21 -18
1192 3 -1 -5.474844019849155 -8.199881124078866 -4.907999220433822 1 -1 -8
1195 1 0 -4.379604199710413 -9.197743415828182 -4.9747728117284336 -122 -63 -24
612 1 0 -3.3851679872884812 -9.086981374664015 -5.375131254607837 1 -3 -6
611 1 0 -3.480609927766575 -7.73468510213525 -5.459403190848991 -81 -68 -44
1199 1 0 -3.750393298695632 -8.680351938024463 -4.343874615667574 12 -50 -61
1201 3 -1 -2.7607128152073597 -8.292540966297999 -4.825632346635743 2 1 0
618 1 0 -2.1578942902709555 -8.999852015782123 -5.320469038222162 7 0 -4
1203 1 0 -1.998282839089804 -8.929757159386863 -4.138592245863968 22 -13 -28
1206 1 0 -1.1427208392469261 -8.228547926454103 -4.380442076495074 -17 -19 -50
622 1 0 -0.5629835564150996 -9.417715310256252 -5.497029626729538 2 3 -5
593 1 0 -9.16726848928404 -7.435044170102418 -5.3938714361316755 16 -3 -21
1243 1 0 -9.311222266222815 -7.319131198175534 -4.218636032520035 7 -12 -24
1185 1 0 -8.173852211537294 -7.450300136874191 -4.64589946827349 6 -17 -28
1246 1 0 -8.350990088848333 -6.537288842040636 -5.10458375551453 20 -9 -20
661 1 0 -9.341891686046058 -6.338495468441409 -5.307753710735079 4 4 -2
1251 1 0 -6.781367252664486 -6.924227279352647 -5.133494852959761 3 -14 -32
1254 1 0 -5.9554198165332535 -7.258354033893578 -4.408059220602629 16 -38 -37
1253 1 0 -6.087088783953249 -6.332764669289902 -4.741407202735109 -6 -13 -44
603 2 1 -5.881462620556232 -7.438102872394654 -5.450788579945233 9 -2 -14
668 1 0 -7.206916637462724 -5.937475946870159 -5.481479807334661 0 0 0
1250 1 0 -6.981964113269391 -7.3810713386733715 -4.202639577068611 0 2 -1
677 1 0 -4.42434935350235 -6.080014043218083 -5.489595116560062 -6 -43 -33
674 1 0 -5.409060917586449 -5.790856216726655 -5.423128165209036 10 -11 -32
1257 1 0 -4.906191230290712 -7.154740018732554 -5.26195942204551 -8 -22 -35
1256 2 1 -5.1001318744921935 -5.98043190636826 -4.48162145923849 8 -3 -6
1258 1 0 -4.739857086378593 -6.895290655867726 -4.11007378087475 -12 -22 -36
1262 1 0 -3.38287150978721 -7.321961485153359 -3.9119960038513604 5 -17 -33
1265 1 0 -2.6402907619373845 -7.153579874428517 -4.808119200831884 9 -15 -34
1264 1 0 -3.0368832004449042 -6.170615566062362 -4.992386805692309 -3 1 0
1266 1 0 -2.2373033018511155 -6.51436554181323 -3.9336457058507115 20 -12 -21
624 1 0 -0.3466135805154821 -7.526423954757234 -5.530804428176244 1 -9 -31
1268 1 0 -1.6603396324689261 -6.209254545297836 -4.840549223421868 3 -3 -5
620 1 0 -1.4557879020221471 -7.432712862892323 -5.440107616226896 2 -19 -45
1204 1 0 -1.7485260730262624 -7.453286349333376 -4.20260027806218 -104 -54 -27
1208 1 0 -0.17333973376265774 -7.563049987337918 -4.354439415316075 14 1 -15
1269 1 0 -1.0660563462205874 -6.67268844149685 -3.9565878962231675 3 -33 -34
1270 1 0 -0.7345887545043083 -6.612289917455395 -5.175706929612678 -1 -16 -46
1298 1 0 -9.262348131395294 -4.40766064279173 -4.569335289855834 6 0 -10
728 1 0 -8.890647438401814 -3.953282254554575 -5.555324446582505 -71 -84 -37
1305 1 0 -8.139224384938595 -4.735079124061551 -4.802533890500327 -5 -17 -30
1301 1 0 -9.061468854392027 -5.239409813516502 -5.245809526949815 8 -6 -18
1245 1 0 -8.77366794415054 -5.584085868462694 -4.101797478206976 4 -2 -5
1248 1 0 -7.724357525763641 -5.676437348701069 -4.386519281848337 0 -8 -45
736 1 0 -6.369093574048155 -4.323362631652479 -5.674649890284179 -1 -8 -34
732 1 0 -7.39376949916702 -4.37340216682934 -5.508090271805489 -18 -21 -28
1252 1 0 -6.252624310438391 -5.434472799581344 -5.085592016483697 17 -8 -14
1308 1 0 -6.900656046473889 -4.849798093589643 -4.600747908014751 -56 -108 -45
1312 1 0 -5.877098884763705 -5.041451060110277 -4.247617292112256 1 -18 -39
1306 1 0 -7.287053320749124 -3.8268205506679314 -4.097390818036405 3 0 -5
1310 1 0 -6.18613702592261 -3.9900823675322337 -4.6219253720306135 -12 -27 -40
1317 1 0 -4.691765311870338 -5.013043608273368 -4.987879557489276 -7 -26 -36
1314 1 0 -5.1251412408485475 -4.092453961492696 -4.2741721832277 0 1 -1
740 1 0 -5.477774733325148 -4.618891184266665 -5.420207690443399 14 -14 -18
686 1 0 -2.16597348929699 -5.664555538873376 -5.598083718600889 -17 -18 -42
1260 1 0 -3.8020237938739236 -5.495561895867701 -4.983227474132515 -16 -31 -39
1324 1 0 -2.883540291020487 -5.07644947006216 -4.797039377888602 12 -26 -34
1320 1 0 -3.8079038556542204 -4.5811941160510115 -4.25497300161429 -5 -18 -35
751 1 0 -2.257711104850324 -4.139173388122132 -5.591673251762894 -135 -84 -53
1267 1 0 -1.9470000751400383 -5.312722067597792 -4.015842602254313 4 -2 -6
1321 1 0 -3.7531043560343815 -4.173752831195178 -5.290488721259408 18 -9 -21
1261 1 0 -3.4232500370747427 -5.705215336330748 -3.9694433684495243 3 -2 -9
1326 1 0 -2.0389957975553 -4.3840063950215304 -4.380945276314402 14 -18 -25
1271 1 0 -0.5023947578778672 -5.564808625861588 -4.87709307390357 7 -30 -35
1329 1 0 -1.5157744679170086 -5.042411086746716 -4.953422860215301 -47 -112 -23
1332 1 0 -0.594286070850664 -4.80422973169329 -4.208733292765957 -7 -17 -38
790 1 0 -9.244560000439277 -2.9332132075534534 -5.519824689135343 0 -18 -30
1368 3 -1 -8.457010090096526 -2.287346926129604 -5.199175213462283 15 -11 -18
1302 1 0 -8.455136127069485 -3.7359876822213445 -4.018205829815957 13 -28 -41
1304 1 0 -8.165103134183516 -3.4957671869378433 -4.938455123296891 15 -9 -12
1299 1 0 -9.242451541896983 -3.3649157665834815 -4.675489968068837 -2 0 -4
1367 1 0 -8.864447675967572 -2.5583686773189678 -4.149796707687913 2 2 -2
739 2 1 -5.761481354843478 -3.2015493121306893 -5.616736470657161 1 2 -4
1373 1 0 -7.173243930197935 -3.157149862652003 -5.009296011380238 -7 -9 -45
1371 1 0 -7.363116626987731 -2.806984240708754 -3.8298844008140143 0 2 -1
1372 1 0 -7.286967693363815 -2.0815743445047517 -5.284843918392098 -6 -6 -41
1375 1 0 -6.2245816224482935 -2.5275396715359935 -4.683736489929686 -15 -37 -38
1378 1 0 -4.944091334944968 -2.6979919105559453 -5.047273096209516 17 -18 -35
805 1 0 -4.134442943017351 -2.2005920380992534 -5.58873653360749 -16 -59 -59
742 1 0 -4.7172101154280615 -3.678553047042192 -5.314417838923564 5 -11 -41
1313 1 0 -5.644535123448097 -3.30733606506581 -4.118749765064864 0 2 -1
1380 1 0 -4.22759449029899 -2.117647297039009 -4.611825248666553 16 -16 -24
1318 1 0 -4.676609283418996 -3.2429778235091913 -4.167413297308216 13 -19 -33
813 1 0 -2.163117567510194 -2.110846055522606 -5.607449384998648 1 -70 -77
1322 1 0 -3.0487518200441897 -3.8003794538867544 -4.581390433668485 2 -29 -38
811 1 0 -2.6252727464303476 -3.0757208365051043 -5.416609671133614 0 0 -4
1381 1 0 -3.788357255063512 -3.0137056651659004 -4.968652386724843 1 -3 -12
1383 1 0 -3.1100586807127875 -2.2497869474670593 -5.021361748734978 7 -20 -39
1385 1 0 -2.219029227107 -2.460409512547114 -4.647233081554253 4 -74 -72
1327 1 0 -2.030730999493292 -3.376037997870829 -4.097668817868906 10 -11 -15
1331 1 0 -0.8057847833169217 -3.6564414037182025 -4.258499903125521 6 -32 -32
754 1 0 -1.1254339403870832 -3.784359173984952 -5.413884816736748 14 -16 -39
816 1 0 -1.2212444484601226 -2.7042970606140093 -5.381563507173628 -113 -72 -55
1387 1 0 -1.2793270328956567 -1.989222627703771 -4.1792084417030715 -62 -97 -13
1391 1 0 -0.3992876529717412 -2.3675107604312333 -4.738732803005234 14 -31 -43
861 1 0 -8.011785922101957 -0.6089898335795709 -5.580321293603378 3 1 -3
1366 1 0 -9.04258696955978 -1.5184564314853637 -4.110985702497635 2 -19 -29
1370 1 0 -7.895419571885607 -1.5118827645554282 -4.174699689435202 15 -5 -18
1431 1 0 -8.783326519164484 -1.0437445468529856 -4.961788799288262 -1 0 -3
1429 1 0 -9.349123318850605 -0.42280636017211326 -4.517490593558701 7 -15 -47
1435 1 0 -7.743390089391166 -0.47261261550996525 -4.491264855703342 -15 -33 -33
856 1 0 -9.493771987371153 -0.44102837198729605 -5.713137485132008 18 -31 -33
1439 1 0 -6.530203923887403 -0.3102538654165354 -4.826305545886524 11 -28 -28
800 1 0 -5.82332999492653 -1.8387031402253418 -5.439253698631621 5 2 -3
865 1 0 -6.5507765790446815 -0.9161710164242576 -5.653339110593331 -16 -23 -51
1374 1 0 -6.73246996586116 -1.7737359033568645 -4.273356142804493 5 -26 -24
1441 1 0 -5.713721434120067 -1.0427665858114366 -4.691141362598449 18 -17 -22
1376 1 0 -5.470091388294357 -1.872047936167568 -4.16126241662151 -8 -13 -35
802 1 0 -4.926751670535172 -1.221696404639475 -5.485726154407301 16 -16 -29
1449 1 0 -4.092542507924866 -0.741106211587387 -4.326170453503639 -22 -44 -43
1444 1 0 -5.274715574718531 -0.2362033223761202 -3.845630752155676 -104 -56 -37
1445 1 0 -5.149236839077177 -0.15104211685518423 -5.072667227612419 -25 -57 -71
1454 1 0 -2.4334604257137653 -1.0469861581356024 -5.249756561607388 6 0 -5
879 1 0 -2.9818122154951627 -0.26951318998954515 -5.670569855589974 -8 -24 -43
875 1 0 -3.659654910396049 -1.0558394446670651 -5.570076375430425 -12 -51 -42
1451 1 0 -2.860958179987667 -0.7877589207871886 -4.0218019075859095 0 2 -5
1393 1 0 -0.13163584257159539 -1.3873153852522897 -4.5007997424972395 15 -15 -37