LAMMPS data file via write_data, version 28 Oct 2021, timestep = 200

5214 atoms
8 atom types

-9.525278051358015 9.525278051358015 xlo xhi
-9.525278051358015 9.525278051358015 ylo yhi
-9.525278051358015 9.525278051358015 zlo zhi

Masses

1 1
2 1
3 1
4 1
5 1
6 1
7 1
8 1

PairIJ Coeffs # lj/cut/coul/long

1 1 1 1 2.5
1 2 1 1 2.5
1 3 1 1 2.5
1 4 1 1 2.5
1 5 1 1 2.5
1 6 1 1 2.5
1 7 1 1 2.5
1 8 1 1 2.5
2 2 1 1 2.5
2 3 1 1 2.5
2 4 1 1 2.5
2 5 1 1 2.5
2 6 1 1 2.5
2 7 1 1 2.5
2 8 1 1 2.5
3 3 1 1 2.5
3 4 1 1 2.5
3 5 1 1 2.5
3 6 1 1 2.5
3 7 1 1 2.5
3 8 1 1 2.5
4 4 0 0 2.5
4 5 0 0 2.5
4 6 1 1 2.5
4 7 1 1 2.5
4 8 1 1 2.5
5 5 0 0 2.5
5 6 1 1 2.5
5 7 1 1 2.5
5 8 1 1 2.5
6 6 1 1 2.5
6 7 1 1 2.5
6 8 1 1 2.5
7 7 1 1 2.5
7 8 1 1 2.5
8 8 1 1 2.5

Atoms # charge

70 1 0 -9.50170947008811 -9.33848684554032 -7.70317433777481 4 -7 -4
528 1 0 -8.416896922727545 -9.227171657293166 -8.012054473920296 3 -4 -2
6 1 0 -8.081697636952969 -8.273872649013859 -8.476947099819563 3 -1 -3
524 1 0 -9.022453457041399 -8.447411480420707 -8.143858565433872 -27 -25 -16
5155 1 0 -9.12945822100928 -9.106650282900453 -8.915088205650811 -58 -104 -34
2 1 0 -9.282229472810922 -7.735673381650871 -8.934634437551685 9 -7 -36
3 1 0 -8.580101046463879 -8.444190789797762 -9.330206579358784 0 -1 -5
11 1 0 -7.110313463296081 -9.024111063423195 -8.945728826672084 22 -11 -22
13 1 0 -6.096374372012606 -8.770220691429865 -9.119972861480782 2 -19 -34
16 1 0 -5.549644046154839 -8.917270333254066 -8.09826967137131 7 -64 -70
14 1 0 -5.63741106189279 -7.952811496848627 -8.690791620967973 17 -10 -30
1110 1 0 -4.661307665668618 -9.391439546123683 -7.6964580311898345 0 2 0
607 1 0 -5.303576437801257 -8.110659701672096 -7.7006656651366026 -1 -8 -50
18 1 0 -4.7282337595739685 -8.584484776084993 -8.566084606094867 -17 -26 -26
4650 1 0 -3.8762427342103827 -8.899395064410237 -8.135849772917197 13 -4 -14
4652 1 0 -3.8827088119488864 -8.534029297257332 -9.171960012026307 -13 -23 -38
17 1 0 -4.884340064372409 -7.9479445691775785 -9.50241637293508 9 -10 -26
4654 1 0 -2.762946210352921 -8.42995678222482 -8.809528674690677 -88 -65 -55
22 1 0 -2.904638347099223 -9.395698438947425 -7.845937245412222 -110 -68 -67
678 1 0 -2.2038519417939435 -7.712225534537985 -7.680976749446667 0 1 0
94 1 0 -3.7105582801630215 -7.765301977359617 -8.332736432728847 -69 -62 -41
25 1 0 -1.8493441804962678 -8.64245282764916 -8.026008099066102 12 -18 -27
553 1 0 -1.4042813321054912 -8.53761155075022 -9.115542438336517 -10 -25 -42
4664 1 0 -0.4763744059035471 -7.931927351578347 -9.340927229440432 2 -6 -37
617 1 0 -0.8447413611142552 -8.25243426822667 -7.905829976491233 -107 -69 -30
35 1 0 -0.4139437925745181 -8.955131568211561 -9.311062746637955 -22 -38 -48
554 1 0 -1.0009548729335092 -9.278712323499395 -8.380137907710775 5 0 -5
654 1 0 -9.370152123220237 -6.631864469554075 -8.345063171164268 8 -27 -47
4 1 0 -7.840729783758904 -7.534824494662444 -9.169297227886492 -19 -21 -28
651 1 0 -8.854750658426159 -7.303274134983923 -7.697267457224316 16 -2 -23
713 1 0 -8.081838450529588 -6.510704237068895 -7.62961694359235 8 -2 -10
1 1 0 -8.563691955612548 -6.616461351547035 -9.1701085535784 12 -30 -26
4708 1 0 -5.980256953383894 -6.809505845052841 -9.194866294123367 9 -1 -17
80 1 0 -6.678887718742877 -6.704414024122473 -8.240537170442739 2 3 0
5 1 0 -6.85300357395886 -7.604384635734487 -8.833360730833077 0 3 1
76 1 0 -7.540373742135977 -6.017434312805235 -8.294366298992278 -109 -46 -63
9 1 0 -6.46035339147656 -7.577413526868014 -7.725705618548236 -14 -55 -59
79 1 0 -7.042757472033724 -6.7030695905846125 -9.279205317634599 5 -1 -8
15 1 0 -5.644614445212604 -7.037552820162211 -7.933824180556512 10 -47 -49
21 1 0 -4.723807219076023 -7.402539653528775 -8.472843183590353 -19 -31 -35
89 1 0 -4.61675740594896 -6.350718840967166 -8.623562456909134 5 0 -5
91 1 0 -3.9170698738379475 -6.369954399809573 -7.9228180137944335 6 -31 -32
87 1 0 -5.711656401426172 -6.127067279134447 -8.492066251383383 -5 -29 -43
93 1 0 -3.9291865360608984 -5.800972331829986 -9.24428935139778 14 -13 -27
31 1 0 -2.3220511411134908 -7.478271453206259 -8.98379824101554 6 -4 -10
92 1 0 -3.1255426941182614 -7.1279436601678565 -7.748463153214388 12 -62 -45
96 1 0 -2.6388562338292894 -6.008808128090422 -7.8688660583246595 -6 -43 -33
97 1 0 -2.960372887841497 -6.365611791580353 -8.885011174830733 3 -14 -23
4718 1 0 -3.3277713152877517 -7.6192155912868875 -9.275552065890652 11 -57 -68
679 1 0 -1.566985860694485 -6.546936206915621 -7.788159376208028 -17 -23 -32
4726 1 0 -0.8310322993841092 -5.78625150744509 -9.373360252067782 18 -23 -40
32 1 0 -1.3913196317678618 -7.3196208537517995 -8.588083885880456 4 -3 -8
98 1 0 -1.8537517974561106 -6.067897640736948 -8.887804014985278 -1 -1 -35
37 1 0 -0.501129466280927 -7.277401719019305 -8.046143441976001 13 -25 -42
42 1 0 -0.11441956703964846 -6.818042363619376 -9.331406268730522 16 -6 -18
102 1 0 -0.6422560065843695 -6.282035045080099 -8.345846171096541 12 -18 -32
73 1 0 -8.112550600934933 -5.293397954036429 -9.14672853933289 -14 -18 -37
135 3 -1 -9.035648737876805 -4.540964549939559 -9.330750372936974 1 0 0
4765 1 0 -7.914099297685059 -4.17828000627305 -9.32851480548277 13 -16 -45
134 1 0 -9.195211578640205 -4.994082032129654 -8.370505509617692 -7 -42 -47
75 1 0 -8.420079888425455 -5.540186988734958 -8.034718193101758 -10 -13 -21
4764 1 0 -8.188767954944502 -4.493329682298121 -8.285437156506715 -2 1 1
4707 1 0 -6.688997656024552 -4.471633409971166 -9.476464239075883 -8 -17 -32
146 1 0 -6.063869299225541 -3.985319471263932 -7.808451186387019 -2 -29 -46
85 1 0 -6.326321465604196 -5.599979153163238 -7.77731698094894 -114 -88 -57
78 1 0 -7.534621015799354 -5.294651006301951 -7.6537312770731445 -105 -60 -22
141 1 0 -7.078775751083489 -4.943777878179585 -8.501024469193881 11 -2 -9
86 1 0 -4.896967552178243 -5.1300596664836915 -9.288436030427611 -17 -23 -22
149 2 1 -4.698819810476166 -5.444086050594305 -7.963971105419406 1 2 -4
150 1 0 -4.834430720729972 -4.115471343793848 -8.273023361481986 13 -16 -50
4780 1 0 -3.9715723239449523 -4.9703147122686 -8.680457512653122 -20 -40 -37
148 1 0 -5.6897141964529 -4.950707586240519 -8.388938373316034 -61 -86 -42
4782 1 0 -3.4436213102365567 -4.077532220363557 -8.51782281052337 15 -7 -20
95 1 0 -2.9452325150087075 -4.943840030376248 -8.905349003175964 4 -17 -36
158 1 0 -2.2559262253348766 -3.8670265037888694 -8.680632067107908 -16 -20 -47
735 1 0 -2.707767318711147 -4.206574133337632 -7.7002124243255246 7 -23 -25
161 1 0 -1.2563894481710962 -5.661573697712663 -7.625043168668695 -13 -18 -25
100 1 0 -1.626254385552726 -5.043688311493985 -8.713543784728623 1 1 1
163 1 0 -0.6822752071158299 -5.2082906668944995 -8.311334875240323 -97 -55 -72
103 1 0 -0.6216805014793649 -4.559161813610779 -9.288958619076414 11 0 -14
162 1 0 -1.431181703078693 -4.4313160008281995 -7.768910700774471 1 3 -2
167 1 0 -0.22765473112367265 -4.3386043149484355 -7.73933584156759 48 -74 -59
777 1 0 -8.598920976929666 -2.7889987763049575 -7.828329880431039 -8 -62 -69
140 1 0 -8.353875994970284 -3.3305858419843095 -8.977738848016337 5 -4 -7
137 1 0 -9.450849700080274 -2.645333448592375 -8.326703777426946 1 -74 -51
136 1 0 -8.843912630610612 -3.6829932462916104 -8.147810391331518 6 0 -17
139 1 0 -7.687875191938344 -3.2862797283215204 -8.240670975466848 -1 2 1
82 1 0 -6.752587328411669 -3.6864811260553703 -8.653742258596766 17 -65 -71
4768 1 0 -7.037314960275603 -2.8977461053495652 -9.297396385873004 13 -12 -13
204 1 0 -6.544697632347961 -2.8727635079353497 -8.182076579282723 5 -6 -11
144 1 0 -6.014776198539887 -2.337295702354105 -8.88746507843836 16 -9 -15
4776 1 0 -5.468415576972828 -3.2589564694120323 -8.551519119664603 13 -13 -30
271 1 0 -4.956862152202663 -2.4681641056569594 -8.19943938418591 12 -4 -18
151 1 0 -4.770628562647881 -3.6906420615322793 -9.328187985260183 1 -1 -6
152 1 0 -4.30154786767859 -3.18345031431488 -8.362271547749943 4 -2 -7
156 1 0 -3.7949421400407815 -3.1524112317525397 -9.414457854284702 10 -8 -11
159 1 0 -2.56829908727225 -2.5239471651131367 -8.835850863045692 1 2 -2
214 1 0 -3.5879531368633524 -2.221824293800886 -8.705893095128127 9 -5 -8
155 1 0 -3.0640879205120313 -3.1775544505246565 -8.065992529041367 15 -3 -8
164 1 0 -1.3939625994300293 -3.3912418351744704 -8.8924945859218 0 1 -1
226 1 0 -0.32605173147041266 -2.8164384673696317 -8.772167957984468 -7 -18 -45
219 1 0 -1.2530319571460216 -2.533867783895908 -8.230061129449854 4 -16 -43
4795 1 0 -0.4648628318584142 -3.50222976192395 -9.495719181987951 3 4 -4
193 1 0 -8.796476145094143 -1.2442057960780588 -8.399995932168018 13 -22 -25
774 2 1 -7.682477812524649 -1.7953921812214348 -8.187002535343876 14 -4 -14
256 1 0 -9.399302074947876 -0.4175603249917026 -8.35500187150391 16 -9 -40
4896 1 0 -9.189286821954036 -0.696677806053147 -9.420006974766158 12 -6 -13
4898 1 0 -8.02465851895366 -0.6869869583915243 -8.84753536702452 -17 -28 -33
203 1 0 -6.756060363940946 -1.4059780985195003 -8.3959257090017 3 2 -3
205 1 0 -6.484551978205398 -1.3436354959027148 -9.514608093436657 12 -4 -15
202 1 0 -7.497483310086442 -1.5556442047902068 -9.263900288418984 11 -35 -33
4912 1 0 -5.987080617093685 -0.2810957941684214 -9.380599885685436 -2 -5 -32
196 1 0 -7.17159108403748 -0.3410757140716103 -8.33383953531845 14 -11 -18
4910 1 0 -6.038903538170812 -0.4602436668049838 -8.298278725369455 21 -16 -29
207 1 0 -4.113708785168577 -1.8920959339515286 -7.842668817920875 0 3 -2
212 1 0 -4.715172580268347 -0.6693113552763542 -7.760655156945258 7 -41 -38
216 1 0 -4.081331217772684 -1.0941949906063226 -8.52077805290572 -11 -22 -17
206 1 0 -5.687152608171772 -1.3537955790557088 -8.675520322574267 0 1 2
210 1 0 -4.748244462513671 -1.7662990036037804 -9.079176631649768 8 -19 -36
209 1 0 -4.949676432637451 -0.6706749476127954 -8.835364162179713 11 -24 -41
215 1 0 -2.8063572124251523 -1.3843006188534606 -8.738400781546199 -14 -12 -35
217 1 0 -1.9055547962621837 -1.013544933491219 -9.396016090419844 0 3 0
282 1 0 -2.0213050969965196 -0.1594376667549168 -8.679778648560246 10 -7 -29
4918 1 0 -3.1223175327410613 -0.7266965860876116 -9.382794377327603 18 -3 -16
218 1 0 -2.923099610062862 -0.6813384185870979 -8.103556980074096 -2 -24 -41
4857 1 0 -0.7658036937440392 -1.8310508803264625 -9.179576987751066 -126 -97 -35
225 1 0 -0.42027738856453256 -1.7373957777762705 -8.133973019346268 -9 -9 -20
220 1 0 -1.6211875118679966 -1.5469068416758183 -8.499471605047887 -11 -13 -40
291 1 0 -1.0540546977743492 -0.8655092058341997 -8.023132103746299 8 -16 -39
286 1 0 -0.5664525325348627 -0.720300932657811 -9.32883771253294 -1 1 0
595 1 0 -7.9537987309593365 -9.41081034550952 -6.1777093176187625 -1 -2 -5
591 1 0 -7.688255367513518 -7.955624875757766 -6.38363161919218 9 -83 -69
1228 1 0 -8.39762867966252 -8.205576034127331 -5.7725144696550545 -5 -28 -44
1155 1 0 -9.30413359563999 -8.598392636272056 -5.73227728854574 16 -3 -21
593 1 0 -8.563586514008037 -8.554928044324354 -6.964031554207618 4 -22 -41
12 1 0 -6.44788306260118 -8.766601641485021 -7.490590983509688 11 -8 -13
602 1 0 -6.628291426643028 -8.6260840131973 -6.1218732191529375 11 2 -36
599 1 0 -7.379614704302612 -9.388720415058591 -7.128628734757055 -3 -23 -49
604 1 0 -5.687821160521139 -7.736416860451902 -6.795824600703809 -16 -17 -35
611 1 0 -4.243177810534932 -8.046880137485616 -7.27780872285599 14 -1 -19
1169 1 0 -5.4436785242166525 -8.47212322479599 -6.073598712640384 5 -17 -33
614 1 0 -4.402904020770919 -8.920168703194944 -6.582981732945232 0 2 -2
609 1 0 -5.4153867477037805 -8.967752229857407 -7.04013812627217 -1 -17 -28
613 1 0 -3.8759218196285707 -7.822973543668317 -5.809293320252127 23 -10 -18
667 1 0 -4.730915139209933 -7.806966924099469 -6.3477874979286035 -18 -19 -23
24 1 0 -3.0164524020162675 -8.384478528922655 -7.50232131966193 -1 -12 -45
27 1 0 -3.459311535649565 -8.955984875127868 -6.876273207434382 1 2 -6
677 1 0 -2.643575974493618 -8.120182651679382 -6.306949081846881 -81 -68 -44
29 1 0 -1.7558407694895468 -9.282550129895021 -7.188190869704634 -82 -42 -34
99 1 0 -1.6320342059899797 -8.12084739589799 -6.531966956955649 -7 -1 -38
622 1 0 -0.7548343216790894 -9.126478003638656 -7.313487833233206 1 -9 -31
620 1 0 -0.5220495666480607 -8.428849427688696 -6.55908285841266 0 3 0
33 1 0 -1.6207658359144863 -9.171602983477191 -6.155248616136239 -7 -22 -35
712 1 0 -9.3358928302194 -6.390962467492867 -7.282122887972081 1 2 0
653 1 0 -8.574655029612757 -7.309072944540365 -6.620165723122689 6 -4 -3
1285 1 0 -9.178475389175128 -5.913834020001351 -6.1300416843288374 -99 -71 -37
77 1 0 -8.348430579141477 -5.794345489960519 -6.970307727750826 -19 -17 -32
658 1 0 -7.470015934959314 -6.27581410594302 -6.01885944921932 -88 -60 -40
597 1 0 -7.14672174842322 -7.310467309657361 -7.019695205860357 10 -9 -9
10 1 0 -6.22308019409006 -6.771453139467646 -7.012552489290789 23 -12 -31
603 1 0 -6.578714188084081 -7.408975909790188 -6.181826414721533 20 -58 -56
661 1 0 -7.157354478775022 -5.877047150726582 -6.880537167051467 3 -14 -32
608 1 0 -5.651849743501578 -7.261881115924163 -5.843237749625705 -6 -13 -44
90 1 0 -4.576354914348775 -6.824444891711366 -7.131043986403909 7 -4 -9
662 2 1 -5.623664293828928 -6.210014339900444 -6.091122810287791 9 -2 -14
83 1 0 -5.456534869372862 -6.148152474316478 -7.523656316366034 4 -32 -54
665 3 -1 -4.599688851210696 -5.85943227519458 -7.057016695733506 1 0 -2
670 1 0 -4.29733452659563 -6.64569837094515 -6.117308552127356 -7 -26 -36
674 1 0 -3.3834221888760787 -7.473713496125042 -6.710724959086723 -14 -36 -43
680 1 0 -2.2782663077259326 -6.999408659894624 -6.663356204112596 10 -28 -17
675 1 0 -2.131432473360972 -6.070093277083865 -6.199015124823678 7 -15 -38
153 1 0 -3.636097205064384 -5.994294753545233 -6.630351917452173 -8 -22 -35
676 1 0 -3.108475100808204 -6.670067175219127 -5.8954710788614495 11 -69 -67
618 1 0 -0.9464315123742483 -7.593577220467408 -5.948913482885042 1 2 0
681 1 0 -0.7990017407399226 -7.503771804861256 -6.95845342591141 -17 -18 -42
1253 1 0 -1.2808926627117343 -6.472388548629574 -6.614264892842031 1 4 1
684 1 0 -0.25910630268365464 -6.698657555185695 -6.133975230044049 18 -5 -34
101 1 0 -0.21089652402562298 -6.31166867097777 -7.35569205130151 1 6 -1
655 1 0 -8.44332487311768 -3.9234245436163353 -6.146453837648862 -71 -84 -37
1290 1 0 -8.4327097573927 -5.162289570159577 -5.959276953807723 -80 -35 -44
74 1 0 -8.763587991463679 -4.590189931661513 -7.260865535994395 18 -12 -30
142 1 0 -6.355170797431256 -4.180039200116107 -6.9017446942842895 12 -8 -17
81 1 0 -7.383228525601777 -4.404387398585211 -6.423655296332849 16 -38 -37
138 1 0 -7.50066639625244 -4.175412416459001 -7.610267926599213 5 -4 -10
669 1 0 -6.08715387705366 -5.483105174587048 -6.674325152690413 -1 -8 -34
663 1 0 -5.898720266458035 -4.258305359296366 -5.815093834211513 1 5 0
154 1 0 -4.044852349589146 -4.297720081924758 -7.589002707994862 -17 -36 -50
727 1 0 -5.035151825614964 -5.284305202167191 -6.378220085975143 10 -11 -32
732 2 1 -4.124082458668112 -4.916666792815998 -6.838578742055327 1 2 -4
723 1 0 -5.167532097259328 -4.7165084457247 -7.225601320236107 -10 -9 -39
731 1 0 -4.6505581335064425 -4.287994363582926 -6.2595379308583325 -7 -18 -36
668 3 -1 -3.9564230254457615 -5.016672888493481 -5.76471766504493 13 -12 -20
157 1 0 -3.238133302725672 -5.231445352053975 -7.506401031937885 27 -58 -62
672 1 0 -2.942201906496884 -5.615799336018643 -6.137830093606213 -1 5 -1
737 1 0 -2.417215418806932 -5.072079822375291 -6.839432615104302 -97 -100 -32
736 1 0 -3.215849538480973 -4.06426170719265 -6.2292654656932225 -21 -15 -45
1311 1 0 -2.080723227436859 -4.847562449544976 -5.844172634883133 19 -13 -31
734 1 0 -2.1298717286226347 -4.074124128361247 -6.442044940585752 14 -10 -24
682 1 0 -0.3782776393035048 -5.543751886018737 -5.76102771938245 -1 2 -7
738 1 0 -1.2476885377156572 -5.171065507616306 -6.590775956346707 4 -26 -27
740 1 0 -0.7885157976390168 -4.47706905531081 -5.981670781754869 21 -14 -32
165 1 0 -0.23591074337758144 -5.529565874246029 -6.755371077865878 -18 -13 -21
717 1 0 -9.163121027014382 -3.513245931305136 -6.916521772135637 22 -9 -26
1359 1 0 -8.359191750536745 -2.759123789807468 -6.441765413997859 12 -18 -31
718 1 0 -7.916448732193006 -3.3292666475115196 -7.132040903628621 0 -18 -30
716 1 0 -9.484505947654382 -2.6708154165746905 -6.390769172357943 2 -19 -29
143 1 0 -6.794856088890377 -3.3012617878924715 -7.296788051476526 -19 -23 -38
721 1 0 -6.335089375519022 -3.255309917425641 -6.368778581041009 -18 -21 -28
200 1 0 -6.997428871813243 -2.2068348933826365 -7.491582683518293 -5 -26 -20
778 1 0 -7.223736692563111 -2.6851940217060872 -6.4827110146444715 -1 2 -2
783 1 0 -5.683562522169974 -3.0136416989519503 -7.476158514758853 15 -16 -40
208 1 0 -4.553161259865692 -3.3829993023852847 -7.333747430621597 13 -5 -23
147 1 0 -5.357834298937881 -3.6332376795763235 -6.528530205216328 17 -8 -14
780 1 0 -4.98280807671675 -2.46918768767801 -6.963329804778993 -27 -40 -34
785 1 0 -3.8735880345188507 -1.990270029955754 -6.892885848635311 -92 -79 -33
779 1 0 -5.638292932064974 -2.628577949004133 -6.130385038775689 -12 -32 -37
728 1 0 -4.294812151071605 -2.826930430009035 -6.308360009372721 -12 -27 -40
221 1 0 -2.1981012164863407 -3.0885390476789505 -7.545586325766921 -1 -19 -34
211 1 0 -3.490304554175437 -3.263239574426626 -6.997585732754381 2 3 -2
796 1 0 -2.8962972499262323 -2.2179881848274543 -7.434279267922775 -22 -12 -38
729 1 0 -2.536069477287834 -3.132814815395853 -6.263386603972121 4 0 -11
787 1 0 -3.1003472399759784 -2.2372708480504513 -6.074126140570389 1 -3 -12
739 1 0 -1.5696430640586705 -3.193730432739997 -6.744508014171335 -2 -80 -63
222 1 0 -0.4321174445213 -2.69176854079859 -7.135946398899897 1 -70 -77
790 1 0 -1.163313535647566 -2.0000094768395145 -7.383621054788117 6 0 -5
1378 1 0 -1.6974161394724832 -2.487669900496263 -6.029204909729846 5 0 -8
801 1 0 -0.659471860082391 -3.6688871656953714 -7.126379827544666 18 -15 -19
795 1 0 -0.5003596635477261 -2.466428850897007 -6.040853397416396 10 -3 -9
715 1 0 -9.035639270525968 -1.6067750086433605 -6.344502262926095 8 -10 -31
195 1 0 -8.669598133241045 -0.5607251210712768 -7.403188120047522 2 0 1
772 3 -1 -7.874566427593245 -1.735261579723379 -6.694005526858991 15 -11 -18
775 1 0 -7.804193706031656 -1.089887080958664 -7.502832156477779 -105 -69 -44
833 1 0 -8.02421534467065 -0.6905134165395357 -6.560822854989165 -1 1 -1
191 1 0 -9.488293384592723 -0.56506702400679 -6.788918737672409 15 -32 -29
197 1 0 -8.706294288021455 -1.6907539021599765 -7.488612413086171 1 2 1
782 1 0 -5.8553643673675655 -1.819122081664089 -7.1271160209893525 7 -38 -32
837 1 0 -7.305750977820662 -0.16429648773355748 -6.177094816436099 -14 -34 -35
199 1 0 -6.806107905840031 -1.1609282497984938 -7.026942950733307 -16 -23 -51
839 1 0 -6.584204164220313 -1.8390720230858146 -6.16293403060857 0 2 -1
266 1 0 -6.049423271370727 -0.6349699036409092 -6.5180385852956775 -25 -57 -71
773 1 0 -7.420678771775234 -1.2357608341160475 -5.8964365382464345 -2 2 -3
781 1 0 -5.435924920245619 -1.6023482285243529 -5.896869860146332 5 2 -3
1430 1 0 -4.31522409948817 -1.6349425159896698 -6.065451141775359 17 -18 -35
847 1 0 -5.030553464304466 -0.6655696555557599 -5.962957736861394 18 -17 -22
842 1 0 -4.293715989520751 -1.010575221086028 -6.9858737738689145 0 1 1
268 1 0 -5.518206877436195 -0.008217444051770488 -7.489086184609434 0 1 -4
846 1 0 -3.75661659332678 -0.2880507397332036 -6.049605530409618 -15 -22 -49
789 1 0 -3.3259923572071797 -1.0429224485263033 -7.20804666000978 13 -7 -24
793 1 0 -2.0069178585022525 -1.8284829466179469 -6.72861050208313 3 -20 -26
279 1 0 -3.5387454096520146 -0.06803903129680998 -7.605726559252883 13 -21 -38
792 1 0 -2.6573061849661146 -0.1325310589090749 -6.73203762981532 -110 -52 -72
798 1 0 -2.12503643969168 -0.9934106893972227 -7.461094615963295 1 -14 -35
850 1 0 -2.9680494569355367 -0.9887083643354154 -6.252938154630988 -8 -24 -43
852 1 0 -1.5521138984890797 -0.11751479414898221 -6.928826038143756 -109 -44 -52
858 1 0 -0.1667545191252294 -1.3517221043166434 -6.840523434691139 15 -11 -30
862 1 0 -0.7359001281653262 -0.5998100972065991 -6.099061388297766 3 -2 -1
290 1 0 -1.1499070080029363 -1.0995308577234535 -7.083053953753811 14 -21 -34
864 1 0 -0.07576801938069916 -0.23888891777619958 -6.725329825898793 14 -27 -40
857 1 0 -1.8582636489197073 -0.8218393282815598 -6.267808302505712 -103 -90 -66
1154 3 -1 -8.450672402738835 -9.300300770979986 -5.091132705159054 2 4 0
1218 1 0 -9.133147101137139 -8.806396363450306 -4.284041105064305 17 -4 -24
1226 1 0 -8.679322669279916 -7.891794944709892 -4.243833140405518 6 -22 -30
1157 1 0 -8.04671266392988 -8.79188768055716 -4.109090759991066 -2 -13 -38
601 1 0 -6.499288664181192 -7.688344104251053 -5.169173784323674 8 -21 -18
1161 1 0 -6.845137401440511 -8.815531264492222 -4.507698936131671 0 2 -3
1159 1 0 -7.488430582657147 -8.712619616614694 -5.28663181241057 13 -8 -32
657 1 0 -7.327683313827807 -7.748378810361091 -4.460386436868593 6 -17 -28
1235 1 0 -5.919344021638822 -8.628198954076208 -4.597942314461415 8 1 -7
612 1 0 -4.366643479955419 -9.049217608055669 -5.0739068191879 16 -15 -26
1173 1 0 -4.8656391798924705 -8.133251383747739 -5.105833916338887 12 -50 -61
1690 1 0 -4.8513487992205935 -8.75391920957599 -4.1722354564401 6 2 -9
1175 1 0 -3.9230500732909355 -8.320871651992432 -3.8278698378841836 0 0 0
615 1 0 -3.4204079793461393 -8.682802872586858 -5.339913411417464 1 -3 -6
616 2 1 -2.202165767112333 -8.5486329582407 -5.183806894507655 -1 3 1
1174 1 0 -2.974142286682017 -8.04180237944018 -4.474688942049133 -12 -35 -43
2284 1 0 -2.904363577968065 -8.91263373276666 -3.9479076893413696 -6 -30 -28
619 1 0 -0.5582206045039431 -8.581589564231972 -5.564209666278503 2 -23 -42
1181 1 0 -1.87313860387424 -8.115992241742408 -4.189108447311139 9 3 -8
1180 1 0 -1.0293400986220627 -7.979357916948465 -4.731585523866448 2 -19 -45
1184 1 0 -1.2703418217301865 -9.148737333076914 -5.085483748911473 13 -6 -7
1182 1 0 -0.7971870919279915 -8.911160015147608 -4.099262610374465 2 2 -6
1224 1 0 -8.7877253534145 -7.431422374628934 -5.106684476624411 2 1 -2
1231 1 0 -7.96248452580213 -6.736925554959521 -4.249113383244126 0 2 -1
656 1 0 -8.519022540301869 -6.221926332371396 -5.290148189587109 1 -1 -6
1223 1 0 -9.43770560880373 -6.6328516794732 -4.914723146117253 13 -19 -33
598 1 0 -7.403412048494145 -7.253283569889925 -5.537383318840868 11 -37 -36
1229 1 0 -7.037377243190439 -6.00839497932288 -4.850899508711914 1 1 0
660 3 -1 -6.478903350898152 -6.451166437646301 -5.613327407227022 1 -1 -8
1239 1 0 -5.733626920493689 -6.14255675522871 -4.648380533407328 -19 -18 -35
664 1 0 -6.603947967867421 -6.7353488206829795 -4.266274978636704 -4 -77 -56
1241 1 0 -5.132407128209163 -6.850880602174368 -5.107501893283276 7 -1 -10
666 1 0 -4.70573360764369 -5.760148921079905 -5.474516955147382 23 -27 -47
1242 1 0 -4.390852173975158 -6.396874103957826 -4.3389979771120295 -12 -22 -36
1168 1 0 -5.688253357131542 -7.493021166557061 -4.193014747802881 -3 -15 -40
673 1 0 -2.0548445459869367 -7.500019623522412 -5.699507080026382 0 4 1
1176 1 0 -3.7277872563157364 -7.432557960564505 -4.58212954699535 -1 -64 -61
1177 1 0 -2.7495890833125634 -7.106767005058029 -4.831670931962315 9 -15 -34
671 1 0 -3.6367377432692645 -6.0849781577959 -5.120798925333174 3 -19 -35
1245 1 0 -3.035413868365079 -6.280500893159888 -4.247220942743525 -16 -31 -39
621 1 0 -0.45475099841993605 -7.082802594471484 -4.996294623851985 -47 -112 -23
1186 1 0 -0.6020884812997944 -7.59459981731226 -3.820136662300904 -103 -52 -38
1249 1 0 -1.462652385670009 -6.08002145247422 -4.374817252782218 -135 -84 -53
683 1 0 -1.3082082712545806 -6.525447102448988 -5.538801422334053 3 -3 -5
1251 1 0 -1.4758648800126855 -7.112392126975322 -4.576046894985346 14 1 -15
1227 1 0 -7.7071594294196855 -5.137235010287494 -4.898931678386807 18 -9 -18
1287 1 0 -8.426656570788492 -5.619186662671382 -4.20968223424881 20 -9 -20
652 1 0 -8.991381803158145 -4.66454596117998 -5.05246230179072 16 -9 -17
1357 1 0 -9.332074671172112 -4.451029650319009 -3.9576219179473786 -6 -15 -34
1294 2 1 -8.182050356610521 -3.941627448314567 -4.939215450622991 0 -27 -27
1295 1 0 -7.045227827554482 -4.0857597570143405 -5.28876672920757 14 -4 -16
720 1 0 -6.880285550926274 -5.158719917466403 -5.695817892126512 8 -6 -18
1234 1 0 -5.719879552616709 -5.344333839116575 -5.493636255610102 -49 -78 -34
1302 1 0 -5.97027810030175 -4.660584489712103 -4.796172081321257 15 -9 -12
1299 1 0 -7.4028047373455985 -4.2704327760589065 -3.9348187910871637 0 -8 -45
659 1 0 -6.825955502295307 -5.081308667293921 -4.263684229910523 11 -18 -35
730 1 0 -4.872612968204211 -4.606427762764058 -5.335663396459134 1 -18 -39
726 1 0 -3.989494002011479 -3.954688713959721 -5.438245488642601 14 -14 -18
1304 1 0 -4.369860049195898 -4.27976179214903 -4.446600537583944 -5 -18 -35
1243 1 0 -4.5768509214730155 -5.394651763800424 -4.411809046943354 -78 -87 -25
1238 1 0 -5.580219444198984 -5.43487419051348 -3.898313625522234 -13 -30 -35
1247 1 0 -2.4098358001772464 -5.687452238112909 -5.09806272411229 -3 1 0
1310 1 0 -3.5348924515031133 -5.152138155360104 -4.521437456035759 12 -26 -34
1312 1 0 -2.9697471751237385 -4.143526188718497 -5.137952076749678 -24 -33 -47
1246 1 0 -2.3809049756054166 -4.777359179669365 -4.448731394308448 4 -2 -6
1315 1 0 -1.4285093450828135 -4.337841593674286 -4.8347021360691045 14 -16 -39
1316 1 0 -1.4053353816644447 -5.251968199172968 -5.219800656639872 14 -4 -19
1321 1 0 -0.12136381941481036 -5.070619454464676 -4.696006273004476 14 -22 -29
1324 1 0 -0.4337500116916217 -4.1266280371270145 -4.525485136836612 14 -31 -43
1254 1 0 -1.081334312690929 -5.00526145589528 -4.046854168240032 10 -11 -15
1318 1 0 -1.522607934854683 -4.085085462347646 -3.876989374352996 -12 -10 -30
1289 1 0 -9.108582392280807 -3.4707486390541424 -4.083575743282797 15 -5 -11
1364 1 0 -7.816880568553665 -2.214324243158815 -5.526583106390126 17 -37 -32
722 1 0 -7.766950431800888 -3.267980622786494 -5.683462698714615 22 -5 -15
719 1 0 -9.179525612643742 -3.34427843163107 -5.517080237943148 -16 -26 -35
1292 1 0 -9.01305821837422 -2.2877776958938774 -3.9652283822487706 10 -10 -8
1293 1 0 -8.518744866402475 -2.8684636950831597 -4.77747611633282 12 -6 -29
1288 1 0 -8.921313098379372 -2.2798834141407065 -5.519007618239688 17 -11 -28
1423 1 0 -7.69556422221896 -2.132199104961668 -4.460001842264515 2 2 -2
1365 1 0 -6.625576899722153 -2.3493323547712275 -5.3531895740571915 -1 2 -7
1371 1 0 -6.009497394472764 -2.718234900284414 -4.482290839339256 -7 -9 -45
725 1 0 -6.246376816365761 -3.3352585158686314 -5.35629874189356 -18 -50 -49
1300 1 0 -6.331555504859085 -3.723037019728442 -4.311458896108401 0 2 -1
1297 1 0 -7.165358072353764 -3.1947396633558958 -4.811406659673121 18 -11 -24
1366 1 0 -6.699478019756245 -2.032674498547275 -3.9929749518335242 15 -5 -18
1309 1 0 -4.3468019911134945 -3.0767952870320734 -4.690095198922759 0 1 -1
724 1 0 -5.136185186514399 -3.510670165601012 -5.494702637326765 11 -26 -37
1305 1 0 -5.35540003874214 -3.638241316108656 -4.320381792136579 11 -9 -16
784 1 0 -4.826615993944544 -2.2681873159218306 -5.396874869197762 16 -13 -31
1375 1 0 -4.52359287357312 -2.451127436475779 -3.8390297756959004 16 -16 -29
1313 1 0 -2.070832300195078 -3.6212253604690177 -5.3670188717528395 7 -20 -39
788 1 0 -2.442630996798162 -2.1939985007339113 -5.215719191341623 11 -25 -24
1314 1 0 -2.2477207873919003 -3.7379689331735344 -4.351222574264919 0 0 -4
791 1 0 -3.4259662329462177 -2.722361700938587 -3.925745953014984 6 -2 -6
1380 1 0 -2.3187484860252554 -2.78943483886425 -4.078595240931622 2 -29 -38
786 1 0 -3.799119740646153 -2.4486204030655356 -5.346713065334351 12 -23 -40
1377 1 0 -3.3234572569540184 -3.712556000173865 -4.135710563008043 18 -9 -21
733 1 0 -2.9329692545780355 -3.1394951184238806 -5.066495896638291 13 -19 -33
1317 1 0 -1.0754318991802 -3.5349314098556057 -5.222040657811111 -2 -25 -22
1326 1 0 -0.2430988052439646 -3.11555781227277 -4.489084715416957 -113 -72 -55
799 1 0 -0.016534358520809003 -3.673789247661231 -5.591282337424647 -1 2 -1
1322 1 0 -1.2929604632460083 -3.1176607520276027 -4.148936883898298 5 -11 -41
1319 1 0 -1.0896336243598501 -2.1496415173406382 -4.935611817589952 4 -74 -72
1363 1 0 -8.01165065361864 -1.258663857374837 -4.816324229199202 2 1 0
1361 1 0 -9.246703820830913 -1.614608871290202 -4.638346033166883 24 -19 -36
1421 1 0 -7.918957418064723 -0.4294716053909728 -5.390300422051393 3 1 -3
1415 1 0 -8.750573934076362 -0.9829833817905126 -5.560200037624797 -96 -66 -72
1420 1 0 -8.770053867835415 -0.35537850233354956 -4.577230969651713 3 0 -3
1996 1 0 -8.501718504100738 -1.2324825766688725 -3.8561836721926084 -101 -66 -59
1998 1 0 -7.884203833672621 -0.2711867537133485 -4.149117388574391 8 -80 -61
776 1 0 -7.041488517200945 -0.3849611580210791 -4.7829852475722054 -6 -6 -41
840 1 0 -6.966181027036238 -1.407889658404706 -4.813951753771563 -1 0 -3
1422 1 0 -7.463897851622642 -1.2636775618091556 -3.8649850113376387 10 -6 -14
844 1 0 -6.213607903357849 -0.8745643413965631 -5.359127283247628 3 -16 -42
1427 1 0 -6.012352516139808 -1.015178840851535 -4.274906611740776 17 -34 -25
1367 1 0 -5.803091359201767 -1.8202728800520889 -4.823110805162599 -12 -15 -41
1429 1 0 -5.005042897762858 -0.5027753402193907 -4.879839962822399 5 -26 -24
1428 1 0 -4.738091090447672 -0.38118504692196814 -3.85606160118901 -15 -37 -38
1369 1 0 -4.589912933314009 -1.7533716947513076 -4.5557004407269766 2 -9 -35
1435 1 0 -3.857224195264338 -0.7230980275469839 -4.401871181534636 19 -2 -15
1370 1 0 -3.9868772174383884 -1.579051649817652 -3.839859939153414 -15 -15 -34
1434 1 0 -2.7128140497714313 -0.4596799317776934 -4.4880138524774 -99 -62 -50
1372 1 0 -3.6130021767625515 -1.1231849333781079 -5.348706731193046 17 -6 -31
854 1 0 -2.802302890959703 -0.04454076861004801 -5.6362647870644125 -18 -14 -29
1432 1 0 -3.3160953837907137 -1.8362482414839507 -4.530404488505445 0 2 -5
794 1 0 -2.1926698310388284 -1.0499820882513309 -5.277688974628118 -12 -51 -42
1381 1 0 -1.958142406391822 -1.8206021421677991 -4.354853954818086 -16 -59 -59