LAMMPS data file via write_data, version 28 Oct 2021, timestep = 1800

5214 atoms
8 atom types

-9.525278051358015 9.525278051358015 xlo xhi
-9.525278051358015 9.525278051358015 ylo yhi
-9.525278051358015 9.525278051358015 zlo zhi

Masses

1 1
2 1
3 1
4 1
5 1
6 1
7 1
8 1

PairIJ Coeffs # lj/cut/coul/long

1 1 1 1 2.5
1 2 1 1 2.5
1 3 1 1 2.5
1 4 1 1 2.5
1 5 1 1 2.5
1 6 0 0 2.5
1 7 0 0 2.5
1 8 0 0 2.5
2 2 1 1 2.5
2 3 1 1 2.5
2 4 1 1 2.5
2 5 1 1 2.5
2 6 0 0 2.5
2 7 0 0 2.5
2 8 0 0 2.5
3 3 1 1 2.5
3 4 1 1 2.5
3 5 1 1 2.5
3 6 0 0 2.5
3 7 0 0 2.5
3 8 0 0 2.5
4 4 0 0 2.5
4 5 0 0 2.5
4 6 0 0 2.5
4 7 0 0 2.5
4 8 0 0 2.5
5 5 0 0 2.5
5 6 0 0 2.5
5 7 0 0 2.5
5 8 0 0 2.5
6 6 0 0 2.5
6 7 0 0 2.5
6 8 0 0 2.5
7 7 0 0 2.5
7 8 0 0 2.5
8 8 0 0 2.5

Atoms # charge

3 1 0 -8.243740146236062 -9.397666649322304 -9.12387384328957 16 -2 -23
5213 1 0 -9.374475065603178 -9.180891674704943 -9.305430254664714 9 -7 -36
1 1 0 -8.521401750298665 -8.499274380658473 -8.387387333960415 0 -1 -5
5 1 0 -7.690581961658185 -8.998138095097223 -8.187830860680084 23 -19 -35
63 1 0 -8.95109023469117 -9.229823139092606 -7.901407701022587 -56 -122 -28
7 1 0 -7.1125140307454044 -8.170376471268359 -8.59374830096295 7 -64 -70
10 1 0 -6.0391372790861695 -8.184148996933414 -8.959852514785347 -8 -33 -47
8 1 0 -6.721797507629434 -9.27058780052422 -8.750534024473128 10 -47 -49
670 1 0 -6.317274919529919 -8.232813140935956 -7.6367242099820265 23 -12 -31
12 1 0 -5.289905245691542 -8.793452321997375 -8.200659349607246 0 2 0
17 1 0 -4.131230430556817 -8.660459198593976 -8.256752076708084 12 -9 -14
82 1 0 -5.08975976075678 -7.8303803464680914 -8.56190530279592 -19 -31 -35
4660 1 0 -4.2523663326965195 -8.260872057138206 -9.120082760279905 -1 -16 -38
680 1 0 -4.549366790669703 -7.987623935286063 -7.765660855244262 14 -1 -19
541 1 0 -4.981440625346635 -9.192904799762385 -9.218333939927621 0 0 1
21 1 0 -3.2351176174957663 -8.746347660162053 -8.901729591115428 4 -3 -8
19 1 0 -3.1801344046656648 -8.746447874061248 -7.797670032312604 -1 -8 -50
23 1 0 -2.0140376856297832 -7.663727165936967 -8.642784011678742 0 1 0
617 1 0 -2.531373982635299 -7.948176686244213 -7.869545070811077 -7 -22 -35
26 1 0 -2.0354252317441786 -8.636019118283501 -8.457268655227429 17 -5 -25
34 3 -1 -0.17450356092624994 -8.755167182234098 -8.71559751314426 1 2 -1
24 1 0 -0.9285811674993101 -8.958508155578661 -7.913942313130791 -5 -21 -27
29 1 0 -1.1973572592994361 -8.65312146869979 -9.0896542136388 20 -12 -11
71 1 0 -8.497900601752592 -6.622796635499026 -9.317839575651073 16 -8 -10
125 1 0 -9.23712135682996 -6.446853221845971 -8.655178270321851 -62 -87 -48
66 1 0 -8.93323210663703 -7.608685833396682 -8.82153139077744 15 -11 -31
64 1 0 -7.964277060664736 -6.081672243423521 -8.343480985151727 24 -14 -36
4 1 0 -7.987167159610948 -7.5039642476765716 -8.513722167535123 8 -2 -10
659 1 0 -9.335216332428773 -7.555131167532834 -7.7424269222953 17 -18 -35
68 1 0 -6.990824686737706 -6.433188628192454 -8.184193739936736 0 3 1
73 1 0 -6.637833503168287 -7.091229990942543 -8.817091601088741 22 -11 -22
77 1 0 -5.8196659568017814 -7.184948192068209 -8.094576798025999 -5 -29 -43
4708 1 0 -7.568909026481542 -7.088026493805129 -9.390886678316622 -19 -21 -28
75 1 0 -6.029328427816368 -6.143809990398622 -8.64970495634463 9 -1 -17
72 1 0 -7.115312460943805 -7.418744052139076 -7.829279582874426 -2 1 1
74 1 0 -7.101505945990892 -5.976092491278013 -9.06362541424831 -68 -104 -20
80 1 0 -4.345115467166328 -7.117623400001536 -8.439231341858733 -9 -27 -38
142 1 0 -4.541023871143286 -5.90959855124223 -8.346379698948855 13 -16 -50
76 1 0 -5.441864368847225 -7.0016550459369045 -8.995844371601393 0 -18 -51
16 1 0 -4.516454476678376 -6.848277705320806 -9.447715883990819 12 -16 -32
79 1 0 -5.256681850502965 -5.755161401638413 -9.290649708745727 8 -4 -5
89 1 0 -2.183989628698251 -6.543698419935446 -8.534910876704112 -1 -12 -45
85 1 0 -3.4746771519759845 -7.381437921435776 -9.071267217251577 14 -13 -27
20 1 0 -3.1877813030697566 -6.999866822603694 -8.08937441716778 -110 -68 -67
28 1 0 -1.0018532816130834 -7.612439287382129 -9.144682144458697 -10 -25 -42
96 1 0 -0.6212171539786747 -6.069048453494183 -8.315527046507327 2 -4 -3
90 1 0 -1.457903947109598 -5.783809240395845 -7.965703185161215 -8 -5 -28
30 1 0 -0.7162649754154415 -7.002170322126866 -8.078175815079657 0 4 -2
31 1 0 -0.2712799939265914 -6.702020648784323 -9.05803693177172 -83 -59 -20
94 1 0 -1.3375266093379363 -6.670402998242461 -9.138960298864532 7 -85 -66
4727 1 0 -0.7158629610404784 -5.741322727535559 -9.25190570030418 8 -22 -46
133 1 0 -8.601328442691482 -4.372690074420047 -9.412756447213223 5 -4 -7
131 1 0 -8.434001506151645 -4.02105848459104 -7.944011611840983 12 -30 -26
70 1 0 -9.002535173963638 -5.535331856369096 -9.309230467169163 13 -16 -45
4774 1 0 -8.019623388892967 -5.191720179123909 -9.026758642400909 4 1 -5
132 1 0 -7.855849884930917 -5.144441869564571 -7.646471514867024 1 1 -3
128 1 0 -8.799284224902749 -5.088335128108931 -8.225999075726538 14 -6 -14
69 1 0 -6.957726158754081 -5.362827521618842 -8.126560576392288 -14 -18 -37
140 1 0 -6.354054241810268 -4.6968645936448 -8.66934746248279 5 0 -5
135 1 0 -7.40091258930868 -4.368919512274824 -8.235971693762453 11 -2 -9
4779 1 0 -5.783582838466119 -3.8321184660577106 -8.584070567473667 16 -9 -15
673 1 0 -5.447836975198725 -5.648382052706979 -7.6414158102616545 4 -32 -54
141 1 0 -5.417608170809746 -4.772822637782517 -8.492996300623256 -17 -23 -22
78 2 1 -3.840717537076141 -4.925074415968353 -8.44907507174313 1 2 -4
143 1 0 -4.3776072695119685 -4.094093944936516 -8.157150864525372 27 -58 -62
84 1 0 -2.7255932376688374 -5.2935099678815565 -7.7375543599825845 -16 -20 -47
146 1 0 -3.542377840262041 -3.81560763147908 -8.689113174533874 -97 -100 -32
4791 1 0 -2.0058158898950977 -4.96027232016135 -8.885128696630439 -97 -55 -72
88 1 0 -2.9823806610531496 -5.508205639020436 -8.772370011100323 6 -31 -32
144 1 0 -2.690640197782535 -4.286057258068608 -8.58259148018343 13 -13 -30
153 1 0 -1.7407125570420459 -4.282205565974228 -8.076893389365292 17 -8 -13
156 1 0 -0.05563015790284771 -3.9011118991680656 -7.964871614009364 18 -23 -40
164 1 0 -0.23491550544504028 -4.720233781929388 -9.433398712581013 -9 -13 -40
159 1 0 -0.915728176996899 -4.866700597737545 -8.557253454176253 -101 -62 -38
134 1 0 -7.703063615984093 -3.31890703143967 -8.195640631669962 -19 -23 -38
129 1 0 -8.80583927742451 -3.5084710112541657 -8.800753162924694 -97 -91 -10
192 1 0 -9.075374028739871 -2.284616786949251 -8.540875146940829 1 2 1
259 1 0 -9.470969553869786 -3.026919653463818 -7.962099164069795 5 -4 -10
196 1 0 -8.128973548781254 -2.6728508171780643 -9.044962706939248 1 -74 -51
136 1 0 -6.282519489512187 -2.8604198752093444 -8.320789346506347 -8 -8 -31
200 1 0 -7.088172869654346 -2.284259806672315 -8.866574118716612 -88 -34 -42
138 1 0 -6.949484518285501 -3.4239333408242736 -8.939104692563626 -2 -29 -46
198 1 0 -7.4326237084310165 -2.2234116776641324 -7.916928631898738 -105 -69 -44
207 1 0 -5.385201855517776 -2.9976159244266007 -7.674028947502369 -1 2 -2
208 1 0 -5.645235351104054 -3.2086482374943626 -9.44666467050457 15 -7 -20
211 1 0 -4.898316448170349 -3.29310205510089 -8.575145695709157 -17 -36 -50
210 1 0 -5.465573786468213 -2.268290099464882 -8.622874182399311 10 -8 -11
213 1 0 -4.304126038634568 -3.0599985091454656 -9.427443270278477 18 -14 -26
212 1 0 -4.324871369447239 -2.331347877975733 -8.695573316683818 13 -7 -24
803 1 0 -3.9321696201917242 -3.126637684467238 -7.922914984320019 2 3 -2
148 1 0 -2.865276700602961 -3.0162072920497174 -7.933594477891439 9 -40 -23
152 1 0 -2.791042762734854 -3.240518882905147 -9.041291877980566 1 -6 -10
216 1 0 -3.1701494401661687 -2.220490517246206 -8.583847508513873 7 -23 -25
814 1 0 -2.0040633615437096 -2.2552029876503394 -7.853170401065617 1 3 -2
158 1 0 -1.888129038349312 -3.310095303811591 -8.185565797022658 2 -8 -39
160 1 0 -0.834582285967664 -3.625591027119169 -8.531056052954758 13 -10 -29
221 1 0 -1.1841088725789788 -2.5328972201745534 -8.624996491348675 0 1 -1
225 1 0 -0.24929394087671647 -2.8653454142722814 -8.51728192465374 -11 -19 -37
154 1 0 -1.723727761500357 -3.78253509111883 -9.051483620110089 1 1 1
197 1 0 -8.372198487336757 -1.4408132898518178 -8.654070320977127 13 -22 -25
199 1 0 -7.946329382752941 -0.7155950104996227 -7.636834137661687 12 -6 -13
264 1 0 -9.421826731638989 -1.7329046307269496 -7.6769299192118545 16 -9 -40
266 1 0 -8.718123501304264 -0.5559615540724197 -8.25570242772309 2 0 1
267 1 0 -7.890713944899251 -0.5005906226272573 -8.864550512891096 20 -15 -33
325 1 0 -9.525048845536846 -0.05811918617775153 -8.886712005310171 19 -6 -17
258 1 0 -9.512225966238029 -1.3769087554206378 -9.055539448340447 -27 -29 -38
201 1 0 -6.301685268710382 -1.5781033892153733 -8.59568119579014 -30 -33 -41
271 1 0 -6.226039279417132 -0.7572058592880451 -7.884136515747567 7 -41 -38
273 1 0 -6.899425199513052 -0.8642493610985024 -9.326957088607791 -11 -25 -47
202 1 0 -7.025508067279108 -1.3782599679547471 -7.630661464452195 3 2 -3
270 1 0 -7.0724254672680305 -0.018364873166759485 -8.214090536702477 -9 -98 -68
205 1 0 -5.694011933994486 -1.7694371648731093 -7.725217677883783 -2 2 -1
272 1 0 -5.546228017848602 -0.5404787188434845 -8.691589693451272 7 -21 -44
275 1 0 -4.541612564570228 -0.6198354203343089 -9.122605272586902 13 -29 -34
277 1 0 -4.9729870843092145 -0.6998828768066171 -7.897014388663615 0 3 -2
282 1 0 -3.9258815700399547 -0.3705912540955133 -8.309355389597561 5 -2 -8
808 1 0 -2.7764638699908324 -1.0397423005843094 -8.427974951375807 -126 -97 -35
286 1 0 -2.7134528233818123 -0.11394023916587717 -7.650683790858771 20 -13 -25
278 1 0 -3.592700840012071 -1.2425789926323902 -8.98540840806083 -10 -20 -38
4853 1 0 -2.3531724484763368 -1.3329895903861608 -9.416155676053583 -1 1 0
220 1 0 -0.47725458421169187 -1.5163228495153769 -8.478832217350341 0 3 0
4919 1 0 -1.1626362766760467 -1.124231136360554 -9.182139164036741 10 -7 -29
288 1 0 -1.754801978569547 -0.29164762954052503 -8.930390369035253 -15 -17 -36
223 1 0 -1.1830661176725392 -0.9413355846983172 -8.064662739647858 9 -5 -19
218 1 0 -1.90372777386097 -1.5911180418178987 -8.549491730220687 -11 -13 -40
296 1 0 -0.329879972244628 -0.5560436792957252 -8.745612583140549 8 -6 -7
292 1 0 -0.7048056138901451 -0.04657850132710023 -7.862123255471236 -1 1 1
595 1 0 -8.257035525045731 -8.317977082161294 -6.27798559010168 4 -22 -41
596 1 0 -8.092207810166926 -9.232734893562956 -7.169104843436037 -6 -24 -37
658 1 0 -9.253457047386224 -8.000983711486848 -6.476846269015753 20 -16 -25
1115 1 0 -9.297293235467299 -9.201643686880141 -6.363228334241191 2 -1 -5
2 1 0 -8.69125892936096 -8.270256023110665 -7.290832328138313 18 -15 -31
1129 1 0 -6.299381431652073 -9.219263189251716 -7.521882599160687 13 -4 -14
598 1 0 -7.39235978480645 -8.769372085830875 -6.53007770052542 8 -27 -47
599 1 0 -7.485372264836755 -8.261115269635154 -7.409845569291295 -105 -60 -22
604 1 0 -5.867548376064818 -8.903813985910014 -6.411118240686778 -1 -17 -28
601 1 0 -6.822677721835621 -7.826577963532519 -6.2411579840729745 11 -8 -13
609 1 0 -4.836030442585855 -8.689246395999008 -6.071081580813649 8 -2 -9
605 1 0 -5.695356783744109 -8.025481617590964 -5.983591808017115 -14 -55 -59
610 1 0 -3.9287538679742453 -9.386205891383485 -6.617217143070023 3 -3 -4
14 1 0 -4.997589387359872 -8.610038356312298 -7.177392569111453 -17 -26 -26
675 1 0 -5.541672077745273 -7.8143591351218324 -7.155005179501401 7 -4 -9
607 1 0 -3.916584077751296 -8.298576327816798 -6.478077364622747 0 2 -2
608 1 0 -4.719101923018052 -7.676662942343843 -6.571760738024623 -18 -19 -23
13 1 0 -4.370426357789383 -9.365407198648839 -7.554735621845075 6 -5 -11
613 2 1 -3.468603229494478 -7.784622170690333 -7.358732547152255 -1 3 1
618 1 0 -2.4601742499360886 -8.405203699471546 -6.609742538807757 7 0 -4
614 1 0 -2.948345630824904 -9.308528114319246 -6.189932249777045 17 -14 -32
25 1 0 -1.2840191615233276 -7.77808625761152 -7.448006130982791 0 0 1
1206 1 0 -1.6799559042944676 -8.05230412737042 -5.820002947558062 -17 -19 -50
1141 1 0 -1.7958168760435849 -9.201273744913095 -6.155872966846331 2 -23 -42
623 1 0 -0.5402944056423618 -9.429089406887813 -5.921411277605733 5 0 -5
619 1 0 -0.9677908866159296 -8.757288122422072 -6.772102582256649 -107 -69 -30
615 1 0 -1.8664019562437566 -8.59966872727812 -7.451544110658899 12 -18 -27
625 1 0 -0.009555093970159113 -7.640802968637395 -7.435947082051394 -6 -18 -43
67 1 0 -8.545844527464741 -6.120349734290247 -7.4139333984100055 -16 -26 -19
592 1 0 -8.593161769241046 -7.09536928711045 -6.661311278083345 -12 -14 -30
661 1 0 -8.971758244525592 -6.840580628846425 -5.7901775618061775 4 4 -2
663 1 0 -7.956254600302197 -6.465295922838265 -6.106125410916296 1 1 0
662 1 0 -9.425905411025013 -6.034212718659667 -6.249569641508696 -5 -33 -42
65 1 0 -8.290069686056563 -7.041525096720618 -7.584204944747094 -10 -13 -21
665 1 0 -7.603126536884947 -7.352978461852465 -6.750339282765759 10 -9 -9
666 1 0 -7.581979408660827 -6.061189807238597 -7.383500405475715 1 -1 -6
667 1 0 -6.359110794732812 -7.390651661835441 -7.03777186011959 2 3 0
669 1 0 -6.270547214373517 -6.277304833276691 -7.548628634885584 -114 -88 -57
671 1 0 -5.733890173073104 -5.994514992713926 -5.748659625952302 -10 -9 -39
664 1 0 -6.938960854100613 -6.606390656235688 -6.222701216926585 -5 -28 -44
81 1 0 -4.963972862615757 -6.789474517331336 -7.563557984260986 -1 5 -1
672 3 -1 -5.463167861737636 -6.908450809144298 -6.318153182775269 1 0 -2
679 1 0 -4.900759852217341 -6.060855802896819 -6.831400856038017 -14 -36 -43
683 1 0 -4.02593172296918 -6.777722740746575 -6.974117439661041 -7 -1 -38
681 1 0 -4.131914774281547 -6.202675030819332 -6.119836581282657 3 -19 -35
687 1 0 -2.4221169607033186 -7.069556176152603 -7.142498418131086 -82 -42 -34
149 1 0 -2.911088995606689 -6.250163273516931 -7.270829227519863 3 -14 -23
616 1 0 -3.277302918668251 -7.375511227093364 -6.462204125658498 23 -10 -18
685 1 0 -2.5538530540569306 -6.083366397270989 -6.119499651051394 1 2 -6
620 1 0 -2.380909439755227 -7.287588301103338 -5.725755246159727 2 -19 -45
92 1 0 -1.3640425783284096 -6.653695186857844 -7.378701294408808 -13 -18 -25
97 1 0 -0.2710344861917826 -6.2978901646742065 -7.218595681927509 13 -25 -42
621 1 0 -0.8099893172168713 -7.550478128368941 -6.405756470704591 1 2 0
691 1 0 -1.656113094430144 -6.700422240730863 -6.421997909498614 34 -70 -57
727 1 0 -8.8641152655709 -4.957448029902716 -6.398716029697772 22 -9 -26
733 1 0 -7.795034232612471 -5.40052596053652 -6.534318926460911 13 -5 -23
726 1 0 -8.047826425134781 -4.29665865817513 -6.269467486223096 14 -4 -16
139 1 0 -6.153446198299179 -4.89062612679887 -7.312692352916018 -8 -17 -32
137 1 0 -6.346094155445392 -3.851308068248856 -7.583179083135128 -1 2 1
730 1 0 -7.142088166548603 -4.489296431570423 -7.150764787201628 22 -5 -15
734 1 0 -6.330722285521968 -5.578260476548083 -6.5488087551056084 1 5 0
204 1 0 -5.352688753893212 -4.115863427968016 -7.580667282993454 11 -35 -33
676 1 0 -5.177393407047571 -5.231780065005671 -5.952348841939883 -61 -86 -42
738 1 0 -5.7075750975912305 -4.110380097292708 -6.623869441059744 17 -65 -71
743 1 0 -4.781596915630342 -4.815334249816675 -6.986261880865211 7 -15 -38
744 3 -1 -4.144160654885525 -4.959146506962243 -6.0441080263508775 13 -12 -20
86 1 0 -3.7078978476683653 -5.668031335324379 -7.425442342457264 9 -10 -26
684 1 0 -3.1935969847801506 -5.410134969560297 -6.542109228198006 4 -17 -36
746 1 0 -3.6524147021170803 -4.632699865546413 -7.292001694235057 21 -13 -40
748 1 0 -2.642282785884903 -3.943014867507946 -7.351366719929315 4 -26 -27
750 1 0 -2.3590522321609773 -4.830586237831304 -6.738239796294052 1 4 1
747 1 0 -3.4002288290061347 -4.137475418770402 -6.197296970403212 -24 -33 -47
91 1 0 -0.7426664832589015 -5.3115729177365045 -7.268683802369975 -17 -23 -32
157 1 0 -0.6366938256832656 -4.117769870486902 -6.934971903938548 12 -18 -32
688 1 0 -1.7465050735145056 -5.67053418304464 -6.8036481244947735 -1 -1 -35
692 1 0 -0.4219643945359028 -5.070614706606807 -6.282385104159197 1 4 -5
752 1 0 -1.6175088173282373 -4.426654823093358 -6.27745564353855 18 -5 -34
755 1 0 -0.08772173128332247 -4.195104113291773 -5.9028554586360995 -1 2 -7
690 1 0 -1.7117150346626084 -5.385035042698644 -5.74832229578742 10 -28 -17
130 1 0 -8.42508155686438 -2.929216688876554 -7.512913486659196 16 -29 -43
788 1 0 -9.026446994612929 -3.7718235135320435 -6.09174061189955 2 3 1
127 1 0 -9.069845854686559 -3.7870611090091177 -7.103108977599983 18 -12 -30
790 1 0 -9.391639138077227 -2.7065169676350522 -5.973632585451305 0 -18 -30
794 1 0 -8.083029064658602 -3.0394744467382324 -6.46282901856488 -1 2 -7
855 1 0 -9.145705116774009 -2.563464912193159 -6.903155348309865 5 -28 -35
195 1 0 -7.300689153338555 -3.164056434612198 -7.213820776188263 -80 -35 -44
731 1 0 -6.427190537147916 -3.631550605894718 -5.9432579551308455 11 -18 -35
799 1 0 -6.408563038452709 -2.575381750845973 -7.34857545982405 -5 -26 -20
797 1 0 -6.963071103202031 -2.6891183449770155 -5.976810945608692 16 -13 -31
801 1 0 -5.826791436348273 -2.6877155638480597 -6.255085048197042 -92 -79 -33
795 1 0 -7.372992237188299 -2.159232528892825 -6.806046014881721 -12 -32 -37
206 1 0 -4.725225376071929 -2.2493116296336804 -7.5794376528373055 4 -2 -7
806 1 0 -4.273252496984259 -2.6607648980267014 -6.837748214258333 4 0 -11
745 1 0 -4.043153728881961 -3.6727145537596138 -7.0236908037113865 14 -10 -24
805 1 0 -4.898390752427377 -3.432541631764612 -6.178363496244607 -16 -59 -59
807 1 0 -3.842203655594244 -3.1797523288057548 -6.049420093768738 2 -9 -35
804 1 0 -4.907767580553662 -2.077008867995067 -6.353635708079109 11 -25 -24
810 1 0 -3.3652562528737207 -2.28362495217707 -7.3587025119018215 1 2 -2
751 1 0 -2.478231292645382 -3.7436794060528387 -6.096238640922957 -135 -84 -53
749 1 0 -2.801447157599307 -2.953190291424839 -6.722935151125552 5 0 -8
757 1 0 -0.7459271096520528 -2.226721547717889 -6.74929921804189 -21 -72 -67
151 1 0 -1.7913356007082055 -3.290745821837227 -6.952626828018936 -21 -15 -45
756 1 0 -0.8832181493447899 -3.232894650893038 -6.2969201931023076 11 -28 -39
753 1 0 -1.822390506305188 -2.208745176549334 -6.735906605235629 18 -15 -19
816 1 0 -1.8763348331418712 -2.868114650841897 -5.926146358056318 -113 -72 -55
228 1 0 -0.12295913513740636 -2.7186317298984894 -7.3715640604404715 -14 -16 -33
161 1 0 -0.9038738510886447 -3.227322538310128 -7.617240273075868 -18 -25 -50
856 1 0 -8.2769305211675 -0.744489820482729 -6.031513052562751 18 -31 -33
860 1 0 -9.001418068000191 -1.1695609066692438 -6.71334811617182 14 -11 -18
793 1 0 -8.04460168254021 -1.8520015277081092 -6.069693865556688 -2 2 -3
920 1 0 -9.450125311570854 -0.4041539728670751 -7.388285375014552 28 -11 -30
194 2 1 -8.189184613164025 -1.7144126965411475 -7.553485979735228 14 -4 -14
796 1 0 -7.379682461805224 -0.972133311853659 -6.649434381962024 15 -16 -40
861 1 0 -6.91809229285628 -1.516401478840892 -5.718237334803877 3 1 -3
798 1 0 -6.159376298956805 -1.6285496188070068 -6.758453877120688 12 -4 -18
866 1 0 -6.6542815065346606 -0.4497580016611957 -6.173086574719358 -62 -62 -41
209 1 0 -4.121695060837361 -1.4826892799431708 -7.562811414836966 15 -3 -8
879 1 0 -3.9046085236299843 -0.0769039529669821 -6.00202884012402 -8 -24 -43
870 1 0 -5.211982349592753 -1.128403668584654 -6.904203241897798 -22 -12 -38
867 1 0 -5.714793504391949 -0.09638357488786341 -6.993688337448375 0 1 -4
865 1 0 -5.670316078209864 -0.7059441549376374 -5.990057734351978 -16 -23 -51
872 1 0 -4.679744895647546 -0.26287219470617623 -6.829443097844494 17 -7 -7
874 1 0 -3.758847693209674 -0.4437289479095017 -7.178268417391538 9 -5 -8
813 1 0 -2.6361912887423933 -1.815261971498865 -6.006805904260826 1 -70 -77
878 1 0 -3.728129242577118 -1.1725203839469986 -6.468136055162501 -2 -24 -41
812 1 0 -2.0544794895286853 -1.3207710267513642 -7.215349662169344 -1 -19 -34
883 1 0 -2.781673355306012 -0.6228601519233116 -5.930251551665711 3 -20 -26
880 1 0 -2.0780284827425324 -0.17795795916852852 -6.514491184940075 1 -14 -35
293 1 0 -0.24281251522916028 -0.9993528530079 -7.581252043577014 -1 5 -4
818 1 0 -1.1491978246642824 -1.855562511293102 -7.5895817467657505 0 -1 0
886 1 0 -1.0416368083916796 -0.14933441175536594 -6.783000661363859 -9 -9 -20
817 1 0 -1.7577802567631635 -1.169134521977242 -6.238944207472619 4 -16 -43
1460 1 0 -0.11540226571824237 -0.3061296514979447 -6.103729999340009 16 -4 -12
890 1 0 -0.7329522605401697 -1.1005672162165767 -6.610960490452011 18 -34 -37
594 1 0 -8.084209146499717 -7.697620004963938 -5.094192516923075 1 3 1
1116 1 0 -8.906112708354822 -8.788578654198012 -5.111563190855967 -92 -66 -40
1242 1 0 -8.914513215076289 -8.477781370570357 -4.071198734352564 17 -4 -24
1185 1 0 -7.779799115501797 -8.709180870655329 -5.480846461557818 6 -17 -28
1183 1 0 -7.893896759066562 -8.50578493485872 -4.137226436921261 6 -22 -30
1686 1 0 -9.10731044116822 -9.46651924944384 -3.9534598033427057 9 -4 -14
1695 1 0 -6.9328355266069455 -8.618963572787653 -4.357514808954065 20 -74 -81
600 1 0 -6.518828422751794 -8.63813623297011 -5.490643576368096 -3 -23 -49
1190 1 0 -5.8176085494018634 -8.863834266983593 -3.9334077610020985 9 -83 -69
1192 3 -1 -6.546829880297997 -7.780813796973569 -5.011354486001167 1 -1 -8
1196 1 0 -4.9338845129457125 -7.818379047582139 -5.342251496354408 -9 -89 -61
612 1 0 -4.082497388189285 -8.507925165565856 -5.344907942910568 1 -3 -6
606 1 0 -5.295326464289223 -8.867577343095917 -5.113865163602535 -88 -60 -40
1194 1 0 -4.991528301647951 -8.267038130359845 -4.285158624423754 8 -21 -18
1198 1 0 -4.081261027789786 -8.800966732596939 -3.9957607080893607 16 -11 -16
1713 1 0 -2.366005414456488 -8.523374462518463 -5.155332156984749 13 -6 -7
1201 3 -1 -3.201688192729013 -7.7147446460603755 -5.179310322856132 2 1 0
1203 1 0 -2.9079700455399373 -8.531758109731843 -4.327249400961339 22 -13 -28
1710 1 0 -3.408047007013877 -9.405789895884134 -4.8184199183604175 -76 -75 -21
1202 1 0 -2.050042703950697 -7.669802834366892 -4.762471543434207 2 3 -3
1715 1 0 -1.1507871409463437 -9.350750758363755 -4.205492346741562 10 -14 -20
627 1 0 -0.9364650744755955 -7.980749004188145 -4.790181787804732 2 2 -6
1243 1 0 -9.432608837272044 -7.197537958315053 -4.908449543658384 7 -12 -24
1247 1 0 -8.847164784005935 -6.803049564754401 -3.937226078247449 -2 -9 -29
1248 1 0 -7.770136231553166 -6.546472984968626 -4.100410040742977 0 -8 -45
1246 1 0 -8.1116810872399 -6.64953361467661 -5.124564594920996 20 -9 -20
1305 1 0 -9.007937625780325 -6.093057384316116 -4.789922323258717 -5 -17 -30
1186 1 0 -7.354673873018739 -7.594784648245122 -4.2672054007417906 0 2 -3
603 2 1 -6.061344603057449 -6.948284920396291 -5.399057012746487 9 -2 -14
1254 1 0 -5.958483366016572 -6.670518783162363 -3.98402438829405 16 -38 -37
668 1 0 -7.228472962100711 -5.967969424518208 -5.466245561040646 0 0 0
1251 1 0 -6.8620493682957076 -6.647727487736835 -4.600091616450643 3 -14 -32
593 1 0 -7.227561173168771 -7.1685709045341115 -5.47710322543679 16 -3 -21
1257 1 0 -4.8654438561039814 -6.665039622646588 -5.410465546839581 -8 -22 -35
678 1 0 -4.52874466663483 -5.732526899686057 -5.204520306915941 11 -69 -67
1199 1 0 -4.238219682057403 -7.550854732724173 -4.710467872126932 12 -50 -61
1258 1 0 -5.21169814447955 -7.251824995882781 -4.470619837201169 -12 -22 -36
1253 1 0 -5.425743572940271 -6.118576207256847 -4.709685979832123 -6 -13 -44
611 1 0 -3.9235415133315956 -7.257586182219425 -5.6691612821083375 -81 -68 -44
1837 1 0 -4.07395278756416 -6.705027837139386 -3.848420691198735 15 -12 -20
682 1 0 -3.5221036818303206 -5.827875853686264 -5.465195270618043 19 -13 -31
1256 2 1 -3.80277987560889 -6.622932585551876 -4.8304597968547265 8 -3 -6
1262 1 0 -3.2268255883746577 -7.1341133034062665 -4.082196739698693 5 -17 -33
1265 1 0 -2.8585439955012353 -6.550848758165476 -5.007536932684771 9 -15 -34
689 1 0 -1.1530375750654254 -6.968268277158779 -5.479416084449341 0 4 1
1204 1 0 -1.9048825905737168 -6.587782570011343 -4.796116683126084 -104 -54 -27
1208 1 0 -0.7321756531063929 -6.93663247030512 -4.430738242782068 14 1 -15
1849 1 0 -1.4070239711746146 -7.61624840637533 -3.9125173794809425 9 3 -8
1270 1 0 -1.1061306845944938 -5.97350583264678 -4.798214707224763 -1 -16 -46
694 1 0 -0.03707632281813325 -5.989261590267135 -5.45340850971066 1 6 -1
1298 1 0 -8.969350538885477 -5.02697715184187 -4.544080662914214 6 0 -10
729 1 0 -8.231164726497115 -5.50232060630246 -5.295511273948655 -12 -15 -41
728 1 0 -9.463811856174075 -4.293490967651365 -5.271715770627752 -71 -84 -37
1301 1 0 -9.491309403683305 -5.340872480436306 -5.3897442654449685 8 -6 -18
1302 1 0 -8.131310101015414 -4.5677329111211975 -4.081070596143076 13 -28 -41
735 1 0 -7.519515793452794 -4.5491436864765085 -5.04733342931945 -27 -40 -34
736 1 0 -6.930953382996961 -4.581671945835728 -4.147103123236541 -1 -8 -34
737 1 0 -6.645833453454029 -4.824289951409243 -5.693778329572508 12 -8 -17
1252 1 0 -6.462262870528696 -5.580994285031944 -4.872722420371394 17 -8 -14
1308 1 0 -7.535742062204578 -5.676191696986149 -4.493876329466284 -56 -108 -45
674 1 0 -5.317292341666057 -5.005959304480371 -4.9400630055979144 10 -11 -32
741 1 0 -5.54835553900471 -4.03793741170576 -5.540232939359852 -7 -18 -36
740 1 0 -5.645178162811044 -4.5764233164249815 -3.951846702774912 14 -14 -18
677 1 0 -4.578005498434733 -5.574237033824039 -4.219074241407429 -6 -43 -33
1260 1 0 -3.9174517425493254 -4.80307048517745 -5.022951316362086 -16 -31 -39
742 1 0 -4.391163036470735 -4.4331803113035155 -4.170278275644033 5 -11 -41
1264 1 0 -3.432329419341285 -5.454248290036387 -4.4651810225496815 -3 1 0
1268 1 0 -2.4057099431350912 -5.6073291713921485 -4.849429630897246 3 -3 -5
1324 1 0 -2.7606431911367943 -4.670833561312893 -4.529590578342288 12 -26 -34
686 1 0 -2.8309595640643126 -4.93993620777986 -5.596621175938211 -17 -18 -42
1322 1 0 -3.7075279978192497 -3.8728237884015706 -5.173373921964393 2 -29 -38
754 1 0 -1.275353136285096 -3.8384005249079847 -5.428827418269857 14 -16 -39
1271 1 0 -0.7772007906878298 -5.079922709765015 -5.294806977652872 7 -30 -35
1336 1 0 -0.2168851841087174 -4.339034320480067 -4.685104944360905 14 -4 -19
1332 1 0 -0.8359194632371293 -5.091864745360946 -4.267780830064139 -7 -17 -38
1329 1 0 -1.6614529259428312 -4.841170025324983 -4.755630742614195 -47 -112 -23
1267 1 0 -1.7389393564604825 -5.5646311873271115 -3.9304159481684926 4 -2 -6
732 1 0 -8.520706075968432 -3.7090724885709356 -5.277654294451989 -18 -21 -28
1306 1 0 -7.933300879826545 -3.3695243866623756 -4.319601719955353 3 0 -5
1304 1 0 -8.439067478997778 -2.641430949243881 -5.580644042779348 15 -9 -12
1427 1 0 -9.236346312500174 -2.2025366162532842 -4.565958603753854 17 -11 -28
1364 1 0 -8.92052095135677 -3.4307224758516743 -4.388508735965996 -16 -26 -35
739 2 1 -6.533380774853382 -3.773187498850645 -4.868756653204765 1 2 -4
800 1 0 -5.856540598088447 -2.8986085461835507 -5.100035695738128 5 2 -3
1310 1 0 -6.948032164628108 -3.523691053921778 -3.983720628693142 -12 -27 -40
1372 1 0 -7.20441279810924 -2.6932594400074943 -4.922479700943576 -6 -6 -41
1373 1 0 -7.5301136959157065 -3.6042528437918233 -5.537265568003931 -7 -9 -45
1375 1 0 -6.388066915964455 -2.336676926507691 -4.278270876176729 -15 -37 -38
1378 1 0 -4.916705453042845 -2.64868356525216 -4.196651742859718 17 -18 -35
809 1 0 -3.821911703659333 -1.9219942799532033 -5.586126652017601 -2 -80 -63
1321 1 0 -4.770328801407476 -3.6548208873322214 -4.87220620148221 18 -9 -21
1381 1 0 -4.888952322805721 -2.148203199973739 -5.212510973333757 1 -3 -12
1383 1 0 -3.972443528612966 -2.890706213356284 -4.823305567980908 7 -20 -39
1326 1 0 -2.2727336348842893 -3.4194281797444672 -5.040297601133089 14 -18 -25
811 1 0 -2.983212660078341 -2.925492462605777 -5.538869656758554 0 0 -4
1385 1 0 -2.554384659234445 -2.2798793051681594 -4.782235543162923 4 -74 -72
1384 1 0 -2.8324594519615616 -3.7353560983223613 -3.950483392139519 0 1 -2
1327 1 0 -2.051596200395166 -3.008886053510414 -4.05252369854947 10 -11 -15
1388 1 0 -1.052778123441492 -3.1564312798237797 -3.889739617574573 -9 -13 -40
820 1 0 -0.5226767292301691 -2.298281684006758 -5.514869564637844 5 1 -8
1338 1 0 -0.3452635906784502 -2.7048236706368263 -4.445789147412308 14 -22 -29
1333 1 0 -1.3432614945098882 -2.9106408033495454 -5.002074487448086 15 -5 -26
1387 1 0 -1.6134138986276572 -1.9202015419628091 -4.125739955303742 -62 -97 -13
1389 1 0 -1.6026210306145183 -1.9106185600958325 -5.339863443111475 13 -19 -27
758 1 0 -0.20538253769826104 -3.497237441974905 -5.3229623229901515 -20 -23 -33
792 1 0 -9.152396454783961 -1.701777844050088 -5.653653579949498 -8 -62 -69
1368 3 -1 -8.127703662956621 -1.7633353394736615 -4.87452339004766 15 -11 -18
1431 1 0 -8.503923470814147 -0.5294631021347439 -4.622767483412453 -1 0 -3
1435 1 0 -7.6704667503324515 -0.25274225719895616 -4.040103392234952 -15 -33 -33
1439 1 0 -6.30962520840544 -0.5797958116058487 -4.9696447261559396 11 -28 -28
1374 1 0 -7.199698799712349 -1.2628920050419883 -4.572771269595114 5 -26 -24
1436 1 0 -7.551406496456428 -0.2623462538887322 -5.3621008608302505 7 -19 -33
1440 1 0 -6.68348023609287 -0.6225587897781523 -3.8930803037567627 19 -2 -15
802 1 0 -5.683764790674206 -1.4176247361230254 -5.077424776273892 16 -16 -29
1441 1 0 -5.51518595254164 -0.81446810075483 -3.897409452468279 18 -17 -22
873 1 0 -4.611296606038391 -1.0523328899634325 -5.597078774563271 -110 -52 -72
1445 1 0 -5.169646928716723 -0.3689931042621385 -5.012206887981803 -25 -57 -71
1444 1 0 -4.5663230267909585 -0.02106577798184859 -3.864377081673012 -104 -56 -37
1382 1 0 -4.163255499410943 -1.6367267875686884 -4.560596763004588 -12 -25 -23
1454 1 0 -3.0698798755249825 -1.3622136889208565 -4.957881113718905 6 0 -5
875 1 0 -3.6814707931836814 -0.5308708298800849 -4.944972997763437 -12 -51 -42
1451 1 0 -2.5612172566938383 -0.3698767903021596 -4.807492893942716 0 2 -5
1457 1 0 -3.1049172097482 -1.748686348860471 -3.912480125694636 17 -84 -78
1459 3 -1 -1.9168728774646142 -0.4259733501930909 -3.813279138453382 -2 2 -1
1394 1 0 -0.6828673823581342 -1.6509948238300394 -4.669907653189212 -32 -89 -48